<VTKFile type="UnstructuredGrid"  version="0.1"   >
<UnstructuredGrid>  
<Piece  NumberOfPoints="     2601"  NumberOfCells="     5000">  
<Points>  
<DataArray  type="Float64"  NumberOfComponents="3"  format="ascii">  
 0.000000 0.000000 0.000000 
 0.020000 0.000000 0.000000 
 0.040000 0.000000 0.000000 
 0.060000 0.000000 0.000000 
 0.080000 0.000000 0.000000 
 0.100000 0.000000 0.000000 
 0.120000 0.000000 0.000000 
 0.140000 0.000000 0.000000 
 0.160000 0.000000 0.000000 
 0.180000 0.000000 0.000000 
 0.200000 0.000000 0.000000 
 0.220000 0.000000 0.000000 
 0.240000 0.000000 0.000000 
 0.260000 0.000000 0.000000 
 0.280000 0.000000 0.000000 
 0.300000 0.000000 0.000000 
 0.320000 0.000000 0.000000 
 0.340000 0.000000 0.000000 
 0.360000 0.000000 0.000000 
 0.380000 0.000000 0.000000 
 0.400000 0.000000 0.000000 
 0.420000 0.000000 0.000000 
 0.440000 0.000000 0.000000 
 0.460000 0.000000 0.000000 
 0.480000 0.000000 0.000000 
 0.500000 0.000000 0.000000 
 0.520000 0.000000 0.000000 
 0.540000 0.000000 0.000000 
 0.560000 0.000000 0.000000 
 0.580000 0.000000 0.000000 
 0.600000 0.000000 0.000000 
 0.620000 0.000000 0.000000 
 0.640000 0.000000 0.000000 
 0.660000 0.000000 0.000000 
 0.680000 0.000000 0.000000 
 0.700000 0.000000 0.000000 
 0.720000 0.000000 0.000000 
 0.740000 0.000000 0.000000 
 0.760000 0.000000 0.000000 
 0.780000 0.000000 0.000000 
 0.800000 0.000000 0.000000 
 0.820000 0.000000 0.000000 
 0.840000 0.000000 0.000000 
 0.860000 0.000000 0.000000 
 0.880000 0.000000 0.000000 
 0.900000 0.000000 0.000000 
 0.920000 0.000000 0.000000 
 0.940000 0.000000 0.000000 
 0.960000 0.000000 0.000000 
 0.980000 0.000000 0.000000 
 1.000000 0.000000 0.000000 
 0.000000 0.020000 0.000000 
 0.020000 0.020000 0.000000 
 0.040000 0.020000 0.000000 
 0.060000 0.020000 0.000000 
 0.080000 0.020000 0.000000 
 0.100000 0.020000 0.000000 
 0.120000 0.020000 0.000000 
 0.140000 0.020000 0.000000 
 0.160000 0.020000 0.000000 
 0.180000 0.020000 0.000000 
 0.200000 0.020000 0.000000 
 0.220000 0.020000 0.000000 
 0.240000 0.020000 0.000000 
 0.260000 0.020000 0.000000 
 0.280000 0.020000 0.000000 
 0.300000 0.020000 0.000000 
 0.320000 0.020000 0.000000 
 0.340000 0.020000 0.000000 
 0.360000 0.020000 0.000000 
 0.380000 0.020000 0.000000 
 0.400000 0.020000 0.000000 
 0.420000 0.020000 0.000000 
 0.440000 0.020000 0.000000 
 0.460000 0.020000 0.000000 
 0.480000 0.020000 0.000000 
 0.500000 0.020000 0.000000 
 0.520000 0.020000 0.000000 
 0.540000 0.020000 0.000000 
 0.560000 0.020000 0.000000 
 0.580000 0.020000 0.000000 
 0.600000 0.020000 0.000000 
 0.620000 0.020000 0.000000 
 0.640000 0.020000 0.000000 
 0.660000 0.020000 0.000000 
 0.680000 0.020000 0.000000 
 0.700000 0.020000 0.000000 
 0.720000 0.020000 0.000000 
 0.740000 0.020000 0.000000 
 0.760000 0.020000 0.000000 
 0.780000 0.020000 0.000000 
 0.800000 0.020000 0.000000 
 0.820000 0.020000 0.000000 
 0.840000 0.020000 0.000000 
 0.860000 0.020000 0.000000 
 0.880000 0.020000 0.000000 
 0.900000 0.020000 0.000000 
 0.920000 0.020000 0.000000 
 0.940000 0.020000 0.000000 
 0.960000 0.020000 0.000000 
 0.980000 0.020000 0.000000 
 1.000000 0.020000 0.000000 
 0.000000 0.040000 0.000000 
 0.020000 0.040000 0.000000 
 0.040000 0.040000 0.000000 
 0.060000 0.040000 0.000000 
 0.080000 0.040000 0.000000 
 0.100000 0.040000 0.000000 
 0.120000 0.040000 0.000000 
 0.140000 0.040000 0.000000 
 0.160000 0.040000 0.000000 
 0.180000 0.040000 0.000000 
 0.200000 0.040000 0.000000 
 0.220000 0.040000 0.000000 
 0.240000 0.040000 0.000000 
 0.260000 0.040000 0.000000 
 0.280000 0.040000 0.000000 
 0.300000 0.040000 0.000000 
 0.320000 0.040000 0.000000 
 0.340000 0.040000 0.000000 
 0.360000 0.040000 0.000000 
 0.380000 0.040000 0.000000 
 0.400000 0.040000 0.000000 
 0.420000 0.040000 0.000000 
 0.440000 0.040000 0.000000 
 0.460000 0.040000 0.000000 
 0.480000 0.040000 0.000000 
 0.500000 0.040000 0.000000 
 0.520000 0.040000 0.000000 
 0.540000 0.040000 0.000000 
 0.560000 0.040000 0.000000 
 0.580000 0.040000 0.000000 
 0.600000 0.040000 0.000000 
 0.620000 0.040000 0.000000 
 0.640000 0.040000 0.000000 
 0.660000 0.040000 0.000000 
 0.680000 0.040000 0.000000 
 0.700000 0.040000 0.000000 
 0.720000 0.040000 0.000000 
 0.740000 0.040000 0.000000 
 0.760000 0.040000 0.000000 
 0.780000 0.040000 0.000000 
 0.800000 0.040000 0.000000 
 0.820000 0.040000 0.000000 
 0.840000 0.040000 0.000000 
 0.860000 0.040000 0.000000 
 0.880000 0.040000 0.000000 
 0.900000 0.040000 0.000000 
 0.920000 0.040000 0.000000 
 0.940000 0.040000 0.000000 
 0.960000 0.040000 0.000000 
 0.980000 0.040000 0.000000 
 1.000000 0.040000 0.000000 
 0.000000 0.060000 0.000000 
 0.020000 0.060000 0.000000 
 0.040000 0.060000 0.000000 
 0.060000 0.060000 0.000000 
 0.080000 0.060000 0.000000 
 0.100000 0.060000 0.000000 
 0.120000 0.060000 0.000000 
 0.140000 0.060000 0.000000 
 0.160000 0.060000 0.000000 
 0.180000 0.060000 0.000000 
 0.200000 0.060000 0.000000 
 0.220000 0.060000 0.000000 
 0.240000 0.060000 0.000000 
 0.260000 0.060000 0.000000 
 0.280000 0.060000 0.000000 
 0.300000 0.060000 0.000000 
 0.320000 0.060000 0.000000 
 0.340000 0.060000 0.000000 
 0.360000 0.060000 0.000000 
 0.380000 0.060000 0.000000 
 0.400000 0.060000 0.000000 
 0.420000 0.060000 0.000000 
 0.440000 0.060000 0.000000 
 0.460000 0.060000 0.000000 
 0.480000 0.060000 0.000000 
 0.500000 0.060000 0.000000 
 0.520000 0.060000 0.000000 
 0.540000 0.060000 0.000000 
 0.560000 0.060000 0.000000 
 0.580000 0.060000 0.000000 
 0.600000 0.060000 0.000000 
 0.620000 0.060000 0.000000 
 0.640000 0.060000 0.000000 
 0.660000 0.060000 0.000000 
 0.680000 0.060000 0.000000 
 0.700000 0.060000 0.000000 
 0.720000 0.060000 0.000000 
 0.740000 0.060000 0.000000 
 0.760000 0.060000 0.000000 
 0.780000 0.060000 0.000000 
 0.800000 0.060000 0.000000 
 0.820000 0.060000 0.000000 
 0.840000 0.060000 0.000000 
 0.860000 0.060000 0.000000 
 0.880000 0.060000 0.000000 
 0.900000 0.060000 0.000000 
 0.920000 0.060000 0.000000 
 0.940000 0.060000 0.000000 
 0.960000 0.060000 0.000000 
 0.980000 0.060000 0.000000 
 1.000000 0.060000 0.000000 
 0.000000 0.080000 0.000000 
 0.020000 0.080000 0.000000 
 0.040000 0.080000 0.000000 
 0.060000 0.080000 0.000000 
 0.080000 0.080000 0.000000 
 0.100000 0.080000 0.000000 
 0.120000 0.080000 0.000000 
 0.140000 0.080000 0.000000 
 0.160000 0.080000 0.000000 
 0.180000 0.080000 0.000000 
 0.200000 0.080000 0.000000 
 0.220000 0.080000 0.000000 
 0.240000 0.080000 0.000000 
 0.260000 0.080000 0.000000 
 0.280000 0.080000 0.000000 
 0.300000 0.080000 0.000000 
 0.320000 0.080000 0.000000 
 0.340000 0.080000 0.000000 
 0.360000 0.080000 0.000000 
 0.380000 0.080000 0.000000 
 0.400000 0.080000 0.000000 
 0.420000 0.080000 0.000000 
 0.440000 0.080000 0.000000 
 0.460000 0.080000 0.000000 
 0.480000 0.080000 0.000000 
 0.500000 0.080000 0.000000 
 0.520000 0.080000 0.000000 
 0.540000 0.080000 0.000000 
 0.560000 0.080000 0.000000 
 0.580000 0.080000 0.000000 
 0.600000 0.080000 0.000000 
 0.620000 0.080000 0.000000 
 0.640000 0.080000 0.000000 
 0.660000 0.080000 0.000000 
 0.680000 0.080000 0.000000 
 0.700000 0.080000 0.000000 
 0.720000 0.080000 0.000000 
 0.740000 0.080000 0.000000 
 0.760000 0.080000 0.000000 
 0.780000 0.080000 0.000000 
 0.800000 0.080000 0.000000 
 0.820000 0.080000 0.000000 
 0.840000 0.080000 0.000000 
 0.860000 0.080000 0.000000 
 0.880000 0.080000 0.000000 
 0.900000 0.080000 0.000000 
 0.920000 0.080000 0.000000 
 0.940000 0.080000 0.000000 
 0.960000 0.080000 0.000000 
 0.980000 0.080000 0.000000 
 1.000000 0.080000 0.000000 
 0.000000 0.100000 0.000000 
 0.020000 0.100000 0.000000 
 0.040000 0.100000 0.000000 
 0.060000 0.100000 0.000000 
 0.080000 0.100000 0.000000 
 0.100000 0.100000 0.000000 
 0.120000 0.100000 0.000000 
 0.140000 0.100000 0.000000 
 0.160000 0.100000 0.000000 
 0.180000 0.100000 0.000000 
 0.200000 0.100000 0.000000 
 0.220000 0.100000 0.000000 
 0.240000 0.100000 0.000000 
 0.260000 0.100000 0.000000 
 0.280000 0.100000 0.000000 
 0.300000 0.100000 0.000000 
 0.320000 0.100000 0.000000 
 0.340000 0.100000 0.000000 
 0.360000 0.100000 0.000000 
 0.380000 0.100000 0.000000 
 0.400000 0.100000 0.000000 
 0.420000 0.100000 0.000000 
 0.440000 0.100000 0.000000 
 0.460000 0.100000 0.000000 
 0.480000 0.100000 0.000000 
 0.500000 0.100000 0.000000 
 0.520000 0.100000 0.000000 
 0.540000 0.100000 0.000000 
 0.560000 0.100000 0.000000 
 0.580000 0.100000 0.000000 
 0.600000 0.100000 0.000000 
 0.620000 0.100000 0.000000 
 0.640000 0.100000 0.000000 
 0.660000 0.100000 0.000000 
 0.680000 0.100000 0.000000 
 0.700000 0.100000 0.000000 
 0.720000 0.100000 0.000000 
 0.740000 0.100000 0.000000 
 0.760000 0.100000 0.000000 
 0.780000 0.100000 0.000000 
 0.800000 0.100000 0.000000 
 0.820000 0.100000 0.000000 
 0.840000 0.100000 0.000000 
 0.860000 0.100000 0.000000 
 0.880000 0.100000 0.000000 
 0.900000 0.100000 0.000000 
 0.920000 0.100000 0.000000 
 0.940000 0.100000 0.000000 
 0.960000 0.100000 0.000000 
 0.980000 0.100000 0.000000 
 1.000000 0.100000 0.000000 
 0.000000 0.120000 0.000000 
 0.020000 0.120000 0.000000 
 0.040000 0.120000 0.000000 
 0.060000 0.120000 0.000000 
 0.080000 0.120000 0.000000 
 0.100000 0.120000 0.000000 
 0.120000 0.120000 0.000000 
 0.140000 0.120000 0.000000 
 0.160000 0.120000 0.000000 
 0.180000 0.120000 0.000000 
 0.200000 0.120000 0.000000 
 0.220000 0.120000 0.000000 
 0.240000 0.120000 0.000000 
 0.260000 0.120000 0.000000 
 0.280000 0.120000 0.000000 
 0.300000 0.120000 0.000000 
 0.320000 0.120000 0.000000 
 0.340000 0.120000 0.000000 
 0.360000 0.120000 0.000000 
 0.380000 0.120000 0.000000 
 0.400000 0.120000 0.000000 
 0.420000 0.120000 0.000000 
 0.440000 0.120000 0.000000 
 0.460000 0.120000 0.000000 
 0.480000 0.120000 0.000000 
 0.500000 0.120000 0.000000 
 0.520000 0.120000 0.000000 
 0.540000 0.120000 0.000000 
 0.560000 0.120000 0.000000 
 0.580000 0.120000 0.000000 
 0.600000 0.120000 0.000000 
[...]
<PointData  Scalars="U"> 
<DataArray  type="Float64"  Name="U"  format="ascii"> 
 0.000000e+00
 0.000000e+00
 0.000000e+00
 0.000000e+00
 0.000000e+00
 0.000000e+00
 0.000000e+00
 0.000000e+00
 0.000000e+00
 0.000000e+00
 0.000000e+00
 0.000000e+00
 0.000000e+00
 0.000000e+00
 0.000000e+00
 0.000000e+00
 0.000000e+00
 0.000000e+00
 0.000000e+00
 0.000000e+00
 0.000000e+00
 0.000000e+00
 0.000000e+00
 0.000000e+00
 0.000000e+00
 0.000000e+00
 0.000000e+00
 0.000000e+00
 0.000000e+00
 0.000000e+00
 0.000000e+00
 0.000000e+00
 0.000000e+00
 0.000000e+00
 0.000000e+00
 0.000000e+00
 0.000000e+00
 0.000000e+00
 0.000000e+00
 0.000000e+00
 0.000000e+00
 0.000000e+00
 0.000000e+00
 0.000000e+00
 0.000000e+00
 0.000000e+00
 0.000000e+00
 0.000000e+00
 0.000000e+00
 0.000000e+00
 0.000000e+00
 0.000000e+00
 5.556889e-06
 1.646104e-05
 1.669127e-05
 1.162951e-05
 1.671629e-05
 1.876357e-05
 1.210092e-05
 1.494219e-05
 1.560904e-05
 1.227419e-05
 1.799774e-05
 1.670294e-05
 1.519786e-05
 1.603011e-05
 2.782033e-05
 3.168390e-05
 3.657175e-05
 3.577286e-05
 3.823210e-05
 4.012349e-05
 2.577488e-05
 1.988928e-05
 1.703365e-05
 -1.657223e-06
 -1.910000e-05
 -1.182863e-05
 9.720979e-06
 2.325484e-05
 1.915931e-05
 2.081950e-06
 -4.922352e-06
 1.203689e-05
 3.185538e-05
 2.633120e-05
 2.342099e-05
 2.225615e-05
 3.374156e-05
 2.471606e-05
 7.964616e-06
 1.313314e-05
 1.874410e-05
 1.626873e-05
 1.411355e-05
 -1.993806e-06
 -1.738256e-05
 -1.780277e-05
 -1.365115e-05
 -2.514448e-06
 8.356959e-05
 0.000000e+00
 0.000000e+00
 7.809934e-06
 1.405389e-05
 1.536923e-05
 1.509917e-05
 1.569398e-05
 1.571180e-05
 1.479460e-05
 1.480518e-05
 1.482192e-05
 1.505583e-05
 1.601148e-05
 1.661124e-05
 1.715334e-05
 1.946710e-05
 2.350769e-05
 2.705274e-05
 2.939091e-05
 3.032504e-05
 3.055066e-05
 2.852887e-05
 2.344247e-05
 1.814781e-05
 1.218443e-05
 4.192502e-06
 -1.333504e-06
 5.849489e-07
 7.437270e-06
 1.254735e-05
 1.194900e-05
 8.162373e-06
 7.592664e-06
 1.321122e-05
 1.923484e-05
 2.098471e-05
 2.067813e-05
 2.120642e-05
 2.180242e-05
 1.852626e-05
 1.408895e-05
 1.301344e-05
 1.301865e-05
 1.135306e-05
 7.179767e-06
 9.914516e-08
 -6.043094e-06
 -7.724946e-06
 -4.144443e-06
 9.215349e-06
 -1.684637e-05
 0.000000e+00
 0.000000e+00
 1.722630e-05
 1.738930e-05
 1.681872e-05
 1.625248e-05
 1.597637e-05
 1.571947e-05
 1.538937e-05
 1.527102e-05
 1.535199e-05
 1.566286e-05
 1.624269e-05
 1.695949e-05
 1.797760e-05
 1.969239e-05
 2.197872e-05
 2.413855e-05
 2.563310e-05
 2.622570e-05
 2.580327e-05
 2.400069e-05
 2.079795e-05
 1.683781e-05
 1.243386e-05
 8.054204e-06
 5.324225e-06
 5.588192e-06
 7.967108e-06
 1.011610e-05
 1.057083e-05
 1.010105e-05
 1.070767e-05
 1.316441e-05
 1.596848e-05
 1.758517e-05
 1.813197e-05
 1.824718e-05
 1.773164e-05
 1.600545e-05
 1.380258e-05
 1.219683e-05
 1.084061e-05
 8.802774e-06
 5.616616e-06
 1.621498e-06
 -1.755496e-06
 -3.131387e-06
 -2.222924e-06
 2.261077e-06
 -1.042451e-04
 0.000000e+00
 0.000000e+00
 3.026192e-05
 2.112757e-05
 1.827237e-05
 1.696022e-05
 1.629609e-05
 1.590813e-05
 1.566205e-05
 1.557368e-05
 1.566105e-05
 1.593773e-05
 1.640976e-05
 1.707469e-05
 1.799030e-05
 1.921678e-05
 2.063576e-05
 2.194019e-05
 2.281773e-05
 2.305250e-05
 2.249912e-05
 2.105425e-05
 1.878412e-05
 1.596777e-05
 1.295559e-05
 1.024088e-05
 8.511684e-06
 8.183852e-06
 8.907851e-06
 9.828370e-06
 1.037318e-05
 1.072117e-05
 1.145795e-05
 1.279437e-05
 1.427577e-05
 1.533852e-05
 1.581988e-05
 1.578822e-05
 1.521022e-05
 1.405077e-05
 1.256235e-05
 1.104672e-05
 9.453252e-06
 7.513003e-06
 5.110627e-06
 2.508448e-06
 3.078123e-07
 -1.011884e-06
 -1.887014e-06
 -7.329937e-06
 -5.357005e-05
 0.000000e+00
 0.000000e+00
 2.931292e-05
 2.134851e-05
 1.843839e-05
 1.707750e-05
 1.637718e-05
 1.598483e-05
 1.576987e-05
 1.570144e-05
 1.578013e-05
 1.601152e-05
 1.639895e-05
 1.694514e-05
 1.765576e-05
 1.850973e-05
 1.941077e-05
 2.018878e-05
 2.065783e-05
 2.066699e-05
 2.011772e-05
 1.897817e-05
 1.731758e-05
 1.531552e-05
 1.323375e-05
 1.139932e-05
 1.014267e-05
 9.625459e-06
 9.710298e-06
 1.006876e-05
 1.045562e-05
 1.087373e-05
 1.146561e-05
 1.226456e-05
 1.309492e-05
 1.371615e-05
 1.398710e-05
 1.386592e-05
 1.334084e-05
 1.244008e-05
 1.126800e-05
 9.932284e-06
 8.444447e-06
 6.753996e-06
 4.875797e-06
 2.978813e-06
 1.357040e-06
 2.948900e-07
 4.649179e-08
 4.074821e-06
 3.464084e-05
 0.000000e+00
 0.000000e+00
 2.093927e-05
 1.826546e-05
 1.725256e-05
 1.661078e-05
 1.618272e-05
 1.589998e-05
 1.573498e-05
 1.568250e-05
 1.574594e-05
 1.592883e-05
 1.623112e-05
 1.664763e-05
 1.716355e-05
 1.774125e-05
 1.830666e-05
 1.875341e-05
 1.896665e-05
 1.884994e-05
 1.834433e-05
 1.744318e-05
 1.620505e-05
 1.475492e-05
 1.326966e-05
 1.195104e-05
 1.097607e-05
 1.042741e-05
 1.025668e-05
 1.033134e-05
 1.053495e-05
 1.082908e-05
 1.122260e-05
 1.169225e-05
 1.214615e-05
 1.246278e-05
 1.254796e-05
 1.235284e-05
 1.186439e-05
 1.110249e-05
 1.011615e-05
 8.956654e-06
 7.650612e-06
 6.211991e-06
 4.684473e-06
 3.170868e-06
 1.824724e-06
 8.484218e-07
 6.919978e-07
 4.057788e-06
 -1.043992e-04
 0.000000e+00
 0.000000e+00
 1.065512e-05
 1.450277e-05
 1.573038e-05
 1.594234e-05
 1.584918e-05
 1.570113e-05
 1.558883e-05
 1.554750e-05
 1.559167e-05
 1.572595e-05
 1.594777e-05
 1.624700e-05
 1.660290e-05
 1.697900e-05
 1.731977e-05
 1.755493e-05
 1.761177e-05
 1.743049e-05
 1.697771e-05
 1.625674e-05
 1.531339e-05
 1.423429e-05
 1.313567e-05
 1.214250e-05
 1.135852e-05
 1.083556e-05
 1.056164e-05
 1.048108e-05
 1.053329e-05
 1.067812e-05
 1.088939e-05
 1.113029e-05
 1.134074e-05
 1.144928e-05
 1.139463e-05
 1.113847e-05
 1.066721e-05
 9.989839e-06
 9.131937e-06
 8.124435e-06
 6.994769e-06
 5.770084e-06
 4.488145e-06
 3.199363e-06
 1.946891e-06
 7.285261e-07
 -5.425383e-07
 -5.655999e-07
 -3.553036e-05
 0.000000e+00
 0.000000e+00
 6.825934e-06
 1.326513e-05
 1.504003e-05
 1.551541e-05
 1.554848e-05
 1.545887e-05
 1.536884e-05
 1.532553e-05
 1.534615e-05
 1.543432e-05
 1.558533e-05
 1.578701e-05
 1.601866e-05
 1.624935e-05
 1.643801e-05
 1.653700e-05
 1.649951e-05
 1.628876e-05
 1.588657e-05
 1.529975e-05
 1.456268e-05
 1.373491e-05
 1.289279e-05
 1.211557e-05
 1.146827e-05
 1.098677e-05
 1.067286e-05
 1.050255e-05
 1.044191e-05
 1.045853e-05
 1.052185e-05
 1.059658e-05
 1.063929e-05
 1.060312e-05
 1.044702e-05
 1.014303e-05
 9.679127e-06
 9.058559e-06
 8.296325e-06
 7.414050e-06
 6.435983e-06
 5.388235e-06
 4.298051e-06
 3.183913e-06
 2.020746e-06
 6.411874e-07
 -1.542793e-06
 -5.313353e-06
 -7.174811e-05
 0.000000e+00
 0.000000e+00
 1.510019e-05
 1.510081e-05
 1.543873e-05
 1.545601e-05
 1.534249e-05
 1.520633e-05
 1.509783e-05
 1.503761e-05
 1.503182e-05
 1.507868e-05
 1.517079e-05
 1.529533e-05
 1.543356e-05
 1.556054e-05
 1.564600e-05
 1.565723e-05
 1.556368e-05
 1.534271e-05
 1.498483e-05
 1.449737e-05
 1.390562e-05
 1.325047e-05
 1.258259e-05
 1.195359e-05
 1.140610e-05
 1.096587e-05
 1.063896e-05
 1.041496e-05
 1.027380e-05
 1.019134e-05
 1.014125e-05
 1.009419e-05
 1.001777e-05
 9.879228e-06
 9.650063e-06
 9.310102e-06
 8.849735e-06
 8.270013e-06
 7.581076e-06
 6.799734e-06
 5.947300e-06
 5.047981e-06
 4.126089e-06
 3.198063e-06
 2.252252e-06
 1.191983e-06
 -4.267025e-07
 -7.978487e-06
 1.590585e-05
 0.000000e+00
 0.000000e+00
 2.130062e-05
 1.749588e-05
 1.614985e-05
 1.551138e-05
 1.514982e-05
 1.492157e-05
 1.477635e-05
 1.469407e-05
 1.466392e-05
 1.467691e-05
 1.472284e-05
 1.478889e-05
 1.485877e-05
 1.491276e-05
 1.492859e-05
 1.488355e-05
 1.475751e-05
 1.453647e-05
 1.421574e-05
 1.380201e-05
 1.331367e-05
 1.277896e-05
 1.223198e-05
 1.170711e-05
 1.123319e-05
 1.082882e-05
 1.050057e-05
 1.024400e-05
 1.004670e-05
 9.891252e-06
 9.757024e-06
 9.621058e-06
 9.459070e-06
 9.247412e-06
 8.965722e-06
 8.599409e-06
 8.141237e-06
 7.591785e-06
 6.958956e-06
 6.257015e-06
 5.505656e-06
 4.729288e-06
 3.956282e-06
 3.218840e-06
 2.561798e-06
 2.110741e-06
 2.489999e-06
 9.884566e-06
 7.102972e-05
 0.000000e+00
 0.000000e+00
 2.411386e-05
 1.823855e-05
 1.627222e-05
 1.532873e-05
 1.483645e-05
 1.455787e-05
 1.439316e-05
 1.429862e-05
 1.425267e-05
 1.424171e-05
 1.425420e-05
 1.427801e-05
 1.429941e-05
 1.430302e-05
 1.427247e-05
 1.419189e-05
 1.404792e-05
 1.383186e-05
 1.354166e-05
 1.318295e-05
 1.276911e-05
 1.231979e-05
 1.185827e-05
 1.140793e-05
 1.098860e-05
 1.061377e-05
 1.028916e-05
 1.001298e-05
 9.777260e-06
 9.569540e-06
 9.374283e-06
 9.174028e-06
 8.950597e-06
 8.686616e-06
 8.367265e-06
 7.981903e-06
 7.525255e-06
 6.997993e-06
 6.406844e-06
 5.764499e-06
 5.089687e-06
 4.407746e-06
 3.752029e-06
 3.166868e-06
 2.714386e-06
 2.494176e-06
 2.723050e-06
 5.259037e-06
 -1.203786e-04
 0.000000e+00
 0.000000e+00
 1.952421e-05
 1.686105e-05
 1.549100e-05
 1.474356e-05
 1.432956e-05
 1.408848e-05
 1.394301e-05
 1.385572e-05
 1.380666e-05
 1.378294e-05
 1.377394e-05
 1.376923e-05
 1.375768e-05
 1.372751e-05
 1.366679e-05
 1.356443e-05
 1.341153e-05
 1.320274e-05
 1.293739e-05
 1.262012e-05
 1.226066e-05
 1.187284e-05
 1.147278e-05
 1.107661e-05
 1.069819e-05
 1.034722e-05
 1.002830e-05
 9.740752e-06
 9.479312e-06
 9.235043e-06
 8.996410e-06
 8.750299e-06
 8.483102e-06
 8.181904e-06
 7.835728e-06
 7.436689e-06
 6.980901e-06
 6.469076e-06
 5.906921e-06
 5.305532e-06
 4.682146e-06
 4.061722e-06
 3.479928e-06
 2.987426e-06
 2.648632e-06
 2.484823e-06
 2.051092e-06
 -3.363021e-06
 8.127233e-07
 0.000000e+00
 0.000000e+00
 1.596681e-05
 1.447886e-05
 1.410424e-05
 1.384956e-05
 1.366287e-05
 1.352953e-05
 1.343729e-05
 1.337561e-05
 1.333564e-05
 1.330944e-05
 1.328928e-05
 1.326714e-05
 1.323453e-05
 1.318270e-05
 1.310311e-05
 1.298810e-05
 1.283182e-05
 1.263106e-05
 1.238594e-05
 1.210018e-05
 1.178097e-05
 1.143814e-05
 1.108300e-05
 1.072685e-05
 1.037943e-05
 1.004773e-05
 9.735264e-06
 9.441812e-06
 9.163759e-06
 8.894648e-06
 8.625928e-06
 8.347770e-06
 8.049935e-06
 7.722691e-06
 7.357728e-06
 6.949000e-06
 6.493416e-06
 5.991379e-06
 5.447233e-06
 4.869808e-06
 4.273374e-06
 3.679601e-06
 3.121664e-06
 2.652993e-06
 2.366754e-06
 2.445045e-06
 3.336485e-06
 8.431580e-06
 1.917428e-05
 0.000000e+00
 0.000000e+00
 1.033192e-05
 1.180177e-05
 1.262788e-05
 1.288930e-05
 1.294293e-05
 1.292980e-05
 1.290130e-05
 1.287395e-05
 1.285085e-05
 1.282984e-05
 1.280653e-05
 1.277546e-05
 1.273061e-05
 1.266580e-05
 1.257513e-05
 1.245349e-05
 1.229717e-05
 1.210438e-05
 1.187569e-05
 1.161417e-05
 1.132514e-05
 1.101573e-05
 1.069398e-05
 1.036788e-05
 1.004434e-05
 9.728398e-06
 9.422634e-06
 9.126997e-06
 8.838913e-06
 8.553646e-06
 8.264815e-06
 7.965002e-06
 7.646416e-06
 7.301578e-06
 6.923992e-06
 6.508751e-06
 6.053039e-06
 5.556526e-06
 5.021707e-06
 4.454272e-06
 3.863742e-06
 3.264762e-06
 2.680114e-06
 2.148816e-06
 1.752554e-06
 1.717117e-06
 2.827903e-06
 1.036829e-05
 -8.512424e-05
 0.000000e+00
 0.000000e+00
 5.596171e-06
 1.036732e-05
 1.164415e-05
 1.210412e-05
 1.227676e-05
 1.234046e-05
 1.236226e-05
 1.236728e-05
 1.236365e-05
 1.235238e-05
 1.233145e-05
 1.229753e-05
 1.224669e-05
 1.217490e-05
 1.207836e-05
 1.195390e-05
 1.179937e-05
 1.161401e-05
 1.139869e-05
 1.115595e-05
 1.088986e-05
 1.060565e-05
 1.030913e-05
 1.000601e-05
 9.701243e-06
 9.398433e-06
 9.099452e-06
 8.804265e-06
 8.510973e-06
 8.216034e-06
 7.914622e-06
 7.601061e-06
 7.269314e-06
 6.913480e-06
 6.528264e-06
 6.109391e-06
 5.653930e-06
 5.160508e-06
 4.629418e-06
 4.062647e-06
 3.463806e-06
 2.837928e-06
 2.190859e-06
 1.527354e-06
 8.449917e-07
 1.149621e-07
 -7.677332e-07
 1.116488e-06
 -1.050508e-04
 0.000000e+00
 0.000000e+00
 1.138206e-05
 1.096307e-05
 1.131730e-05
 1.156230e-05
 1.170421e-05
 1.178697e-05
 1.183750e-05
 1.186823e-05
 1.188365e-05
 1.188437e-05
 1.186929e-05
 1.183649e-05
 1.178377e-05
 1.170886e-05
 1.160968e-05
 1.148460e-05
 1.133267e-05
 1.115390e-05
 1.094937e-05
 1.072127e-05
 1.047280e-05
 1.020787e-05
 9.930747e-06
 9.645566e-06
 9.355893e-06
 9.064314e-06
 8.772160e-06
 8.479362e-06
 8.184462e-06
 7.884752e-06
 7.576516e-06
 7.255328e-06
 6.916404e-06
 6.554937e-06
 6.166418e-06
 5.746881e-06
 5.293065e-06
 4.802440e-06
 4.273085e-06
 3.703337e-06
 3.091071e-06
 2.432195e-06
 1.717142e-06
 9.212544e-07
 -2.641385e-08
 -1.361177e-06
 -3.987597e-06
 -1.303259e-05
 -9.078841e-05
 0.000000e+00
 0.000000e+00
 1.425792e-05
 1.150530e-05
 1.114193e-05
 1.112339e-05
 1.118718e-05
 1.126332e-05
 1.133128e-05
 1.138392e-05
 1.141808e-05
 1.143206e-05
 1.142478e-05
 1.139537e-05
 1.134307e-05
 1.126717e-05
 1.116703e-05
 1.104230e-05
 1.089300e-05
 1.071974e-05
 1.052378e-05
 1.030709e-05
 1.007225e-05
 9.822271e-06
 9.560323e-06
 9.289448e-06
 9.012233e-06
 8.730534e-06
 8.445277e-06
 8.156348e-06
 7.862589e-06
 7.561881e-06
 7.251300e-06
 6.927330e-06
 6.586086e-06
 6.223540e-06
 5.835710e-06
 5.418779e-06
 4.969115e-06
 4.483154e-06
 3.957086e-06
 3.386265e-06
 2.764166e-06
 2.080566e-06
 1.318239e-06
 4.467982e-07
 -5.885214e-07
 -1.883583e-06
 -3.581752e-06
 -6.626808e-06
 6.656054e-05
 0.000000e+00
 0.000000e+00
 1.123402e-05
 1.104313e-05
 1.071518e-05
 1.062539e-05
 1.066391e-05
 1.074955e-05
 1.084093e-05
 1.091828e-05
 1.097278e-05
 1.100107e-05
 1.100239e-05
 1.097713e-05
 1.092599e-05
 1.084973e-05
 1.074905e-05
 1.062466e-05
 1.047741e-05
 1.030838e-05
 1.011902e-05
 9.911141e-06
 9.686882e-06
 9.448612e-06
 9.198747e-06
 8.939546e-06
 8.672899e-06
 8.400137e-06
 8.121889e-06
 7.838004e-06
 7.547532e-06
 7.248780e-06
 6.939413e-06
 6.616583e-06
 6.277079e-06
 5.917458e-06
 5.534138e-06
 5.123425e-06
 4.681428e-06
 4.203847e-06
 3.685549e-06
 3.119891e-06
 2.497668e-06
 1.805611e-06
 1.024594e-06
 1.293194e-07
 -9.005240e-07
 -2.004935e-06
 -2.611579e-06
 3.535249e-06
 -1.907439e-05
 0.000000e+00
 0.000000e+00
 1.208465e-05
 1.029888e-05
 1.003124e-05
 1.000935e-05
 1.010008e-05
 1.023337e-05
 1.036628e-05
 1.047634e-05
 1.055409e-05
 1.059719e-05
 1.060665e-05
 1.058477e-05
 1.053403e-05
 1.045672e-05
 1.035480e-05
 1.022994e-05
 1.008365e-05
 9.917430e-06
 9.732848e-06
 9.531605e-06
 9.315531e-06
 9.086523e-06
 8.846446e-06
 8.596996e-06
 8.339561e-06
 8.075092e-06
 7.804005e-06
 7.526119e-06
 7.240645e-06
 6.946211e-06
 6.640929e-06
 6.322472e-06
 5.988168e-06
 5.635058e-06
 5.259933e-06
 4.859290e-06
 4.429196e-06
 3.965014e-06
 3.460958e-06
 2.909417e-06
 2.300013e-06
 1.618393e-06
 8.449173e-07
 -4.621452e-08
 -1.086863e-06
 -2.323486e-06
 -3.964869e-06
 -9.832474e-06
 -7.239460e-05
 0.000000e+00
 0.000000e+00
 8.665739e-06
 9.021978e-06
 9.138624e-06
 9.286070e-06
 9.498250e-06
 9.721035e-06
 9.916595e-06
 1.006782e-05
 1.017057e-05
 1.022714e-05
 1.024229e-05
 1.022120e-05
 1.016857e-05
 1.008828e-05
 9.983467e-06
 9.856634e-06
 9.709837e-06
 9.544862e-06
 9.363356e-06
 9.166913e-06
 8.957107e-06
 8.735476e-06
 8.503467e-06
 8.262358e-06
 8.013166e-06
 7.756566e-06
 7.492817e-06
 7.221726e-06
 6.942630e-06
 6.654417e-06
 6.355560e-06
 6.044165e-06
 5.718021e-06
 5.374626e-06
 5.011177e-06
 4.624495e-06
 4.210866e-06
 3.765759e-06
 3.283400e-06
 2.756149e-06
 2.173683e-06
 1.521963e-06
 7.818949e-07
 -7.321729e-08
 -1.086883e-06
 -2.359989e-06
 -4.204106e-06
 -7.581137e-06
 8.419535e-05
 0.000000e+00
 0.000000e+00
 8.050203e-06
 8.055258e-06
 8.139485e-06
 8.493919e-06
 8.890023e-06
 9.239524e-06
 9.513344e-06
 9.708769e-06
 9.833583e-06
 9.898538e-06
 9.914064e-06
 9.889057e-06
 9.830627e-06
 9.744252e-06
 9.634080e-06
 9.503249e-06
 9.354181e-06
 9.188818e-06
 9.008799e-06
 8.815579e-06
 8.610495e-06
 8.394778e-06
 8.169544e-06
 7.935744e-06
 7.694111e-06
 7.445111e-06
 7.188893e-06
 6.925260e-06
 6.653663e-06
 6.373208e-06
 6.082676e-06
 5.780559e-06
 5.465076e-06
 5.134190e-06
 4.785569e-06
 4.416515e-06
 4.023809e-06
 3.603453e-06
 3.150291e-06
 2.657481e-06
 2.115785e-06
 1.512730e-06
 8.317337e-07
 5.140399e-08
 -8.549388e-07
 -1.919339e-06
 -3.157853e-06
 -5.918085e-06
 -2.401521e-06
 0.000000e+00
 0.000000e+00
 9.268554e-06
 6.357210e-06
 6.923404e-06
 7.679617e-06
 8.337324e-06
 8.837672e-06
 9.190022e-06
 9.420716e-06
 9.556352e-06
 9.619088e-06
 9.626063e-06
 9.590058e-06
 9.520411e-06
 9.423857e-06
 9.305233e-06
 9.168022e-06
 9.014771e-06
 8.847401e-06
 8.667424e-06
 8.476095e-06
 8.274494e-06
 8.063572e-06
 7.844152e-06
 7.616915e-06
 7.382370e-06
 7.140818e-06
 6.892324e-06
 6.636701e-06
 6.373502e-06
 6.102025e-06
 5.821334e-06
 5.530274e-06
 5.227490e-06
 4.911427e-06
 4.580307e-06
 4.232063e-06
 3.864215e-06
 3.473674e-06
 3.056438e-06
 2.607162e-06
 2.118556e-06
 1.580629e-06
 9.800328e-07
 3.010518e-07
 -4.654826e-07
 -1.285418e-06
 -1.997514e-06
 -4.107679e-06
 8.597066e-05
 0.000000e+00
 0.000000e+00
 -8.068494e-07
 3.746895e-06
 5.618258e-06
 6.993735e-06
 7.951047e-06
 8.585856e-06
 8.988116e-06
 9.226889e-06
 9.351156e-06
 9.394668e-06
 9.380471e-06
 9.324274e-06
 9.236787e-06
 9.125309e-06
 8.994820e-06
 8.848734e-06
 8.689415e-06
 8.518548e-06
 8.337374e-06
 8.146861e-06
 7.947795e-06
 7.740840e-06
 7.526548e-06
 7.305362e-06
 7.077597e-06
 6.843422e-06
 6.602840e-06
 6.355676e-06
 6.101577e-06
 5.840021e-06
 5.570328e-06
 5.291682e-06
 5.003146e-06
 4.703675e-06
 4.392104e-06
 4.067116e-06
 3.727166e-06
 3.370370e-06
 2.994305e-06
 2.595721e-06
 2.170063e-06
 1.710640e-06
 1.207157e-06
 6.435967e-07
 -1.119279e-09
 -7.236164e-07
 -1.270637e-06
 3.971063e-07
 3.420108e-05
 0.000000e+00
 0.000000e+00
 -9.437868e-07
 1.719157e-06
 4.805283e-06
 6.731915e-06
 7.885344e-06
 8.562704e-06
 8.946280e-06
 9.145049e-06
 9.224968e-06
 9.226763e-06
 9.176064e-06
 9.089226e-06
 8.976777e-06
 8.845517e-06
 8.699836e-06
 8.542565e-06
 8.375538e-06
 8.199957e-06
 8.016635e-06
 7.826158e-06
 7.628969e-06
 7.425426e-06
 7.215816e-06
 7.000362e-06
 6.779207e-06
 6.552405e-06
 6.319907e-06
 6.081556e-06
 5.837085e-06
 5.586132e-06
 5.328256e-06
 5.062960e-06
 4.789718e-06
 4.507999e-06
 4.217283e-06
 3.917072e-06
 3.606879e-06
 3.286202e-06
 2.954483e-06
 2.611018e-06
 2.254761e-06
 1.883741e-06
 1.493086e-06
 1.068292e-06
 5.627735e-07
 -1.753965e-07
 -1.641823e-06
 -7.314180e-06
 1.624312e-05
 0.000000e+00
 0.000000e+00
 -8.936209e-06
 1.139644e-06
 5.182460e-06
 7.218221e-06
 8.276201e-06
 8.821593e-06
 9.082431e-06
 9.178060e-06
 9.174498e-06
 9.109870e-06
 9.006860e-06
 8.879188e-06
 8.735189e-06
 8.579893e-06
 8.416278e-06
 8.246053e-06
 8.070154e-06
 7.889068e-06
 7.703031e-06
 7.512153e-06
 7.316487e-06
 7.116067e-06
 6.910916e-06
 6.701047e-06
 6.486446e-06
 6.267065e-06
 6.042811e-06
 5.813538e-06
 5.579060e-06
 5.339156e-06
 5.093599e-06
 4.842184e-06
 4.584771e-06
 4.321323e-06
 4.051960e-06
 3.777010e-06
 3.497064e-06
 3.213055e-06
 2.926360e-06
 2.638980e-06
 2.353840e-06
 2.075221e-06
 1.808937e-06
 1.559762e-06
 1.313987e-06
 9.526787e-07
 -1.502109e-07
 -8.654272e-06
 1.038930e-04
 0.000000e+00
 0.000000e+00
 -3.307799e-06
 4.504428e-06
 7.359836e-06
 8.601769e-06
 9.144585e-06
 9.348666e-06
 9.375633e-06
 9.305935e-06
 9.182668e-06
 9.029941e-06
 8.861461e-06
 8.684945e-06
 8.504568e-06
 8.322386e-06
 8.139208e-06
 7.955140e-06
 7.769917e-06
 7.583111e-06
 7.394260e-06
 7.202932e-06
 7.008758e-06
 6.811436e-06
 6.610732e-06
 6.406458e-06
 6.198457e-06
 5.986591e-06
 5.770724e-06
 5.550722e-06
 5.326460e-06
 5.097838e-06
 4.864810e-06
 4.627425e-06
 4.385883e-06
 4.140595e-06
 3.892269e-06
 3.641999e-06
 3.391386e-06
 3.142693e-06
 2.899069e-06
 2.664930e-06
 2.446702e-06
 2.254467e-06
 2.105923e-06
 2.036270e-06
 2.123506e-06
 2.555688e-06
 3.832847e-06
 5.638618e-06
 1.418783e-04
 0.000000e+00
 0.000000e+00
 1.247163e-05
 1.137830e-05
 1.092408e-05
 1.060959e-05
 1.032369e-05
 1.004098e-05
 9.759863e-06
 9.484448e-06
 9.218669e-06
 8.964816e-06
 8.723530e-06
 8.494228e-06
 8.275554e-06
 8.065761e-06
 7.862971e-06
 7.665359e-06
 7.471256e-06
 7.279205e-06
 7.087978e-06
 6.896571e-06
 6.704186e-06
 6.510196e-06
 6.314123e-06
 6.115597e-06
 5.914335e-06
 5.710118e-06
 5.502772e-06
 5.292169e-06
 5.078228e-06
 4.860941e-06
 4.640401e-06
 4.416859e-06
 4.190788e-06
 3.962971e-06
 3.734605e-06
 3.507439e-06
 3.283933e-06
 3.067465e-06
 2.862607e-06