<VTKFile type="UnstructuredGrid"  version="0.1"   >
<UnstructuredGrid>  
<Piece  NumberOfPoints="     2601"  NumberOfCells="     5000">  
<Points>  
<DataArray  type="Float64"  NumberOfComponents="3"  format="ascii">  
 0.000000 0.000000 0.000000 
 0.020000 0.000000 0.000000 
 0.040000 0.000000 0.000000 
 0.060000 0.000000 0.000000 
 0.080000 0.000000 0.000000 
 0.100000 0.000000 0.000000 
 0.120000 0.000000 0.000000 
 0.140000 0.000000 0.000000 
 0.160000 0.000000 0.000000 
 0.180000 0.000000 0.000000 
 0.200000 0.000000 0.000000 
 0.220000 0.000000 0.000000 
 0.240000 0.000000 0.000000 
 0.260000 0.000000 0.000000 
 0.280000 0.000000 0.000000 
 0.300000 0.000000 0.000000 
 0.320000 0.000000 0.000000 
 0.340000 0.000000 0.000000 
 0.360000 0.000000 0.000000 
 0.380000 0.000000 0.000000 
 0.400000 0.000000 0.000000 
 0.420000 0.000000 0.000000 
 0.440000 0.000000 0.000000 
 0.460000 0.000000 0.000000 
 0.480000 0.000000 0.000000 
 0.500000 0.000000 0.000000 
 0.520000 0.000000 0.000000 
 0.540000 0.000000 0.000000 
 0.560000 0.000000 0.000000 
 0.580000 0.000000 0.000000 
 0.600000 0.000000 0.000000 
 0.620000 0.000000 0.000000 
 0.640000 0.000000 0.000000 
 0.660000 0.000000 0.000000 
 0.680000 0.000000 0.000000 
 0.700000 0.000000 0.000000 
 0.720000 0.000000 0.000000 
 0.740000 0.000000 0.000000 
 0.760000 0.000000 0.000000 
 0.780000 0.000000 0.000000 
 0.800000 0.000000 0.000000 
 0.820000 0.000000 0.000000 
 0.840000 0.000000 0.000000 
 0.860000 0.000000 0.000000 
 0.880000 0.000000 0.000000 
 0.900000 0.000000 0.000000 
 0.920000 0.000000 0.000000 
 0.940000 0.000000 0.000000 
 0.960000 0.000000 0.000000 
 0.980000 0.000000 0.000000 
 1.000000 0.000000 0.000000 
 0.000000 0.020000 0.000000 
 0.020000 0.020000 0.000000 
 0.040000 0.020000 0.000000 
 0.060000 0.020000 0.000000 
 0.080000 0.020000 0.000000 
 0.100000 0.020000 0.000000 
 0.120000 0.020000 0.000000 
 0.140000 0.020000 0.000000 
 0.160000 0.020000 0.000000 
 0.180000 0.020000 0.000000 
 0.200000 0.020000 0.000000 
 0.220000 0.020000 0.000000 
 0.240000 0.020000 0.000000 
 0.260000 0.020000 0.000000 
 0.280000 0.020000 0.000000 
 0.300000 0.020000 0.000000 
 0.320000 0.020000 0.000000 
 0.340000 0.020000 0.000000 
 0.360000 0.020000 0.000000 
 0.380000 0.020000 0.000000 
 0.400000 0.020000 0.000000 
 0.420000 0.020000 0.000000 
 0.440000 0.020000 0.000000 
 0.460000 0.020000 0.000000 
 0.480000 0.020000 0.000000 
 0.500000 0.020000 0.000000 
 0.520000 0.020000 0.000000 
 0.540000 0.020000 0.000000 
 0.560000 0.020000 0.000000 
 0.580000 0.020000 0.000000 
 0.600000 0.020000 0.000000 
 0.620000 0.020000 0.000000 
 0.640000 0.020000 0.000000 
 0.660000 0.020000 0.000000 
 0.680000 0.020000 0.000000 
 0.700000 0.020000 0.000000 
 0.720000 0.020000 0.000000 
 0.740000 0.020000 0.000000 
 0.760000 0.020000 0.000000 
 0.780000 0.020000 0.000000 
 0.800000 0.020000 0.000000 
 0.820000 0.020000 0.000000 
 0.840000 0.020000 0.000000 
 0.860000 0.020000 0.000000 
 0.880000 0.020000 0.000000 
 0.900000 0.020000 0.000000 
 0.920000 0.020000 0.000000 
 0.940000 0.020000 0.000000 
 0.960000 0.020000 0.000000 
 0.980000 0.020000 0.000000 
 1.000000 0.020000 0.000000 
 0.000000 0.040000 0.000000 
 0.020000 0.040000 0.000000 
 0.040000 0.040000 0.000000 
 0.060000 0.040000 0.000000 
 0.080000 0.040000 0.000000 
 0.100000 0.040000 0.000000 
 0.120000 0.040000 0.000000 
 0.140000 0.040000 0.000000 
 0.160000 0.040000 0.000000 
 0.180000 0.040000 0.000000 
 0.200000 0.040000 0.000000 
 0.220000 0.040000 0.000000 
 0.240000 0.040000 0.000000 
 0.260000 0.040000 0.000000 
 0.280000 0.040000 0.000000 
 0.300000 0.040000 0.000000 
 0.320000 0.040000 0.000000 
 0.340000 0.040000 0.000000 
 0.360000 0.040000 0.000000 
 0.380000 0.040000 0.000000 
 0.400000 0.040000 0.000000 
 0.420000 0.040000 0.000000 
 0.440000 0.040000 0.000000 
 0.460000 0.040000 0.000000 
 0.480000 0.040000 0.000000 
 0.500000 0.040000 0.000000 
 0.520000 0.040000 0.000000 
 0.540000 0.040000 0.000000 
 0.560000 0.040000 0.000000 
 0.580000 0.040000 0.000000 
 0.600000 0.040000 0.000000 
 0.620000 0.040000 0.000000 
 0.640000 0.040000 0.000000 
 0.660000 0.040000 0.000000 
 0.680000 0.040000 0.000000 
 0.700000 0.040000 0.000000 
 0.720000 0.040000 0.000000 
 0.740000 0.040000 0.000000 
 0.760000 0.040000 0.000000 
 0.780000 0.040000 0.000000 
 0.800000 0.040000 0.000000 
 0.820000 0.040000 0.000000 
 0.840000 0.040000 0.000000 
 0.860000 0.040000 0.000000 
 0.880000 0.040000 0.000000 
 0.900000 0.040000 0.000000 
 0.920000 0.040000 0.000000 
 0.940000 0.040000 0.000000 
 0.960000 0.040000 0.000000 
 0.980000 0.040000 0.000000 
 1.000000 0.040000 0.000000 
 0.000000 0.060000 0.000000 
 0.020000 0.060000 0.000000 
 0.040000 0.060000 0.000000 
 0.060000 0.060000 0.000000 
 0.080000 0.060000 0.000000 
 0.100000 0.060000 0.000000 
 0.120000 0.060000 0.000000 
 0.140000 0.060000 0.000000 
 0.160000 0.060000 0.000000 
 0.180000 0.060000 0.000000 
 0.200000 0.060000 0.000000 
 0.220000 0.060000 0.000000 
 0.240000 0.060000 0.000000 
 0.260000 0.060000 0.000000 
 0.280000 0.060000 0.000000 
 0.300000 0.060000 0.000000 
 0.320000 0.060000 0.000000 
 0.340000 0.060000 0.000000 
 0.360000 0.060000 0.000000 
 0.380000 0.060000 0.000000 
 0.400000 0.060000 0.000000 
 0.420000 0.060000 0.000000 
 0.440000 0.060000 0.000000 
 0.460000 0.060000 0.000000 
 0.480000 0.060000 0.000000 
 0.500000 0.060000 0.000000 
 0.520000 0.060000 0.000000 
 0.540000 0.060000 0.000000 
 0.560000 0.060000 0.000000 
 0.580000 0.060000 0.000000 
 0.600000 0.060000 0.000000 
 0.620000 0.060000 0.000000 
 0.640000 0.060000 0.000000 
 0.660000 0.060000 0.000000 
 0.680000 0.060000 0.000000 
 0.700000 0.060000 0.000000 
 0.720000 0.060000 0.000000 
 0.740000 0.060000 0.000000 
 0.760000 0.060000 0.000000 
 0.780000 0.060000 0.000000 
 0.800000 0.060000 0.000000 
 0.820000 0.060000 0.000000 
 0.840000 0.060000 0.000000 
 0.860000 0.060000 0.000000 
 0.880000 0.060000 0.000000 
 0.900000 0.060000 0.000000 
 0.920000 0.060000 0.000000 
 0.940000 0.060000 0.000000 
 0.960000 0.060000 0.000000 
 0.980000 0.060000 0.000000 
 1.000000 0.060000 0.000000 
 0.000000 0.080000 0.000000 
 0.020000 0.080000 0.000000 
 0.040000 0.080000 0.000000 
 0.060000 0.080000 0.000000 
 0.080000 0.080000 0.000000 
 0.100000 0.080000 0.000000 
 0.120000 0.080000 0.000000 
 0.140000 0.080000 0.000000 
 0.160000 0.080000 0.000000 
 0.180000 0.080000 0.000000 
 0.200000 0.080000 0.000000 
 0.220000 0.080000 0.000000 
 0.240000 0.080000 0.000000 
 0.260000 0.080000 0.000000 
 0.280000 0.080000 0.000000 
 0.300000 0.080000 0.000000 
 0.320000 0.080000 0.000000 
 0.340000 0.080000 0.000000 
 0.360000 0.080000 0.000000 
 0.380000 0.080000 0.000000 
 0.400000 0.080000 0.000000 
 0.420000 0.080000 0.000000 
 0.440000 0.080000 0.000000 
 0.460000 0.080000 0.000000 
 0.480000 0.080000 0.000000 
 0.500000 0.080000 0.000000 
 0.520000 0.080000 0.000000 
 0.540000 0.080000 0.000000 
 0.560000 0.080000 0.000000 
 0.580000 0.080000 0.000000 
 0.600000 0.080000 0.000000 
 0.620000 0.080000 0.000000 
 0.640000 0.080000 0.000000 
 0.660000 0.080000 0.000000 
 0.680000 0.080000 0.000000 
 0.700000 0.080000 0.000000 
 0.720000 0.080000 0.000000 
 0.740000 0.080000 0.000000 
 0.760000 0.080000 0.000000 
 0.780000 0.080000 0.000000 
 0.800000 0.080000 0.000000 
 0.820000 0.080000 0.000000 
 0.840000 0.080000 0.000000 
 0.860000 0.080000 0.000000 
 0.880000 0.080000 0.000000 
 0.900000 0.080000 0.000000 
 0.920000 0.080000 0.000000 
 0.940000 0.080000 0.000000 
 0.960000 0.080000 0.000000 
 0.980000 0.080000 0.000000 
 1.000000 0.080000 0.000000 
 0.000000 0.100000 0.000000 
 0.020000 0.100000 0.000000 
 0.040000 0.100000 0.000000 
 0.060000 0.100000 0.000000 
 0.080000 0.100000 0.000000 
 0.100000 0.100000 0.000000 
 0.120000 0.100000 0.000000 
 0.140000 0.100000 0.000000 
 0.160000 0.100000 0.000000 
 0.180000 0.100000 0.000000 
 0.200000 0.100000 0.000000 
 0.220000 0.100000 0.000000 
 0.240000 0.100000 0.000000 
 0.260000 0.100000 0.000000 
 0.280000 0.100000 0.000000 
 0.300000 0.100000 0.000000 
 0.320000 0.100000 0.000000 
 0.340000 0.100000 0.000000 
 0.360000 0.100000 0.000000 
 0.380000 0.100000 0.000000 
 0.400000 0.100000 0.000000 
 0.420000 0.100000 0.000000 
 0.440000 0.100000 0.000000 
 0.460000 0.100000 0.000000 
 0.480000 0.100000 0.000000 
 0.500000 0.100000 0.000000 
 0.520000 0.100000 0.000000 
 0.540000 0.100000 0.000000 
 0.560000 0.100000 0.000000 
 0.580000 0.100000 0.000000 
 0.600000 0.100000 0.000000 
 0.620000 0.100000 0.000000 
 0.640000 0.100000 0.000000 
 0.660000 0.100000 0.000000 
 0.680000 0.100000 0.000000 
 0.700000 0.100000 0.000000 
 0.720000 0.100000 0.000000 
 0.740000 0.100000 0.000000 
 0.760000 0.100000 0.000000 
 0.780000 0.100000 0.000000 
 0.800000 0.100000 0.000000 
 0.820000 0.100000 0.000000 
 0.840000 0.100000 0.000000 
 0.860000 0.100000 0.000000 
 0.880000 0.100000 0.000000 
 0.900000 0.100000 0.000000 
 0.920000 0.100000 0.000000 
 0.940000 0.100000 0.000000 
 0.960000 0.100000 0.000000 
 0.980000 0.100000 0.000000 
 1.000000 0.100000 0.000000 
 0.000000 0.120000 0.000000 
 0.020000 0.120000 0.000000 
 0.040000 0.120000 0.000000 
 0.060000 0.120000 0.000000 
 0.080000 0.120000 0.000000 
 0.100000 0.120000 0.000000 
 0.120000 0.120000 0.000000 
 0.140000 0.120000 0.000000 
 0.160000 0.120000 0.000000 
 0.180000 0.120000 0.000000 
 0.200000 0.120000 0.000000 
 0.220000 0.120000 0.000000 
 0.240000 0.120000 0.000000 
 0.260000 0.120000 0.000000 
 0.280000 0.120000 0.000000 
 0.300000 0.120000 0.000000 
 0.320000 0.120000 0.000000 
 0.340000 0.120000 0.000000 
 0.360000 0.120000 0.000000 
 0.380000 0.120000 0.000000 
 0.400000 0.120000 0.000000 
 0.420000 0.120000 0.000000 
 0.440000 0.120000 0.000000 
 0.460000 0.120000 0.000000 
 0.480000 0.120000 0.000000 
 0.500000 0.120000 0.000000 
 0.520000 0.120000 0.000000 
 0.540000 0.120000 0.000000 
 0.560000 0.120000 0.000000 
 0.580000 0.120000 0.000000 
 0.600000 0.120000 0.000000 
[...]
<PointData  Scalars="U"> 
<DataArray  type="Float64"  Name="U"  format="ascii"> 
 0.000000e+00
 0.000000e+00
 0.000000e+00
 0.000000e+00
 0.000000e+00
 0.000000e+00
 0.000000e+00
 0.000000e+00
 0.000000e+00
 0.000000e+00
 0.000000e+00
 0.000000e+00
 0.000000e+00
 0.000000e+00
 0.000000e+00
 0.000000e+00
 0.000000e+00
 0.000000e+00
 0.000000e+00
 0.000000e+00
 0.000000e+00
 0.000000e+00
 0.000000e+00
 0.000000e+00
 0.000000e+00
 0.000000e+00
 0.000000e+00
 0.000000e+00
 0.000000e+00
 0.000000e+00
 0.000000e+00
 0.000000e+00
 0.000000e+00
 0.000000e+00
 0.000000e+00
 0.000000e+00
 0.000000e+00
 0.000000e+00
 0.000000e+00
 0.000000e+00
 0.000000e+00
 0.000000e+00
 0.000000e+00
 0.000000e+00
 0.000000e+00
 0.000000e+00
 0.000000e+00
 0.000000e+00
 0.000000e+00
 0.000000e+00
 0.000000e+00
 0.000000e+00
 1.145854e-05
 2.022836e-05
 1.340975e-05
 6.883338e-06
 8.417165e-06
 3.292700e-06
 -8.528330e-07
 8.781345e-06
 1.564092e-05
 1.366418e-05
 1.716239e-05
 1.493631e-05
 1.166308e-05
 8.321505e-06
 1.964148e-05
 2.837735e-05
 3.408726e-05
 3.264058e-05
 3.244426e-05
 3.225815e-05
 2.049580e-05
 1.847167e-05
 1.835406e-05
 1.202114e-07
 -1.970098e-05
 -1.782798e-05
 -6.684182e-06
 -4.364946e-08
 -4.381387e-06
 -1.501533e-05
 -2.030799e-05
 -1.525303e-05
 -1.332306e-07
 3.551047e-06
 1.331992e-06
 3.397774e-06
 1.778767e-05
 1.314308e-05
 7.521610e-06
 1.379315e-05
 1.283341e-05
 1.369802e-05
 1.620473e-05
 1.271521e-05
 2.776035e-06
 -2.560304e-06
 -1.481804e-06
 1.301013e-06
 8.276542e-05
 0.000000e+00
 0.000000e+00
 4.398387e-06
 1.149722e-05
 1.137351e-05
 9.423512e-06
 7.958217e-06
 6.382768e-06
 6.274040e-06
 9.001565e-06
 1.169427e-05
 1.309095e-05
 1.384572e-05
 1.370534e-05
 1.309059e-05
 1.416257e-05
 1.813764e-05
 2.265443e-05
 2.554339e-05
 2.617889e-05
 2.559324e-05
 2.323841e-05
 1.902255e-05
 1.516811e-05
 1.017237e-05
 1.855984e-06
 -5.637704e-06
 -7.493768e-06
 -5.406139e-06
 -3.912137e-06
 -5.556029e-06
 -8.755569e-06
 -1.013746e-05
 -7.447623e-06
 -2.534444e-06
 8.953887e-07
 2.678786e-06
 5.567357e-06
 9.028622e-06
 9.574827e-06
 9.296560e-06
 1.009287e-05
 1.060824e-05
 1.084437e-05
 1.048872e-05
 8.142445e-06
 4.489392e-06
 2.134383e-06
 3.090070e-06
 1.090641e-05
 1.670098e-06
 0.000000e+00
 0.000000e+00
 8.761969e-06
 1.170179e-05
 1.133916e-05
 1.014490e-05
 9.030936e-06
 8.325878e-06
 8.490093e-06
 9.661167e-06
 1.110985e-05
 1.223883e-05
 1.296712e-05
 1.337191e-05
 1.383607e-05
 1.504722e-05
 1.722298e-05
 1.961420e-05
 2.127995e-05
 2.176681e-05
 2.109032e-05
 1.922499e-05
 1.634201e-05
 1.285221e-05
 8.595100e-06
 3.610339e-06
 -6.893589e-07
 -2.877476e-06
 -3.303641e-06
 -3.465426e-06
 -4.321885e-06
 -5.445593e-06
 -5.649116e-06
 -4.227468e-06
 -1.752496e-06
 6.590859e-07
 2.710275e-06
 4.781088e-06
 6.638790e-06
 7.642583e-06
 8.105075e-06
 8.508201e-06
 8.739381e-06
 8.625234e-06
 7.929050e-06
 6.420214e-06
 4.484924e-06
 3.061563e-06
 2.918964e-06
 6.253993e-06
 -6.783509e-05
 0.000000e+00
 0.000000e+00
 2.105600e-05
 1.428413e-05
 1.201138e-05
 1.065202e-05
 9.772442e-06
 9.354661e-06
 9.479027e-06
 1.010242e-05
 1.096027e-05
 1.178403e-05
 1.246849e-05
 1.306225e-05
 1.375024e-05
 1.475143e-05
 1.607368e-05
 1.740025e-05
 1.829879e-05
 1.847263e-05
 1.781365e-05
 1.632178e-05
 1.410037e-05
 1.131143e-05
 8.082365e-06
 4.697336e-06
 1.753496e-06
 -2.413522e-07
 -1.346697e-06
 -2.042617e-06
 -2.678534e-06
 -3.145047e-06
 -3.053362e-06
 -2.178531e-06
 -7.130209e-07
 9.442404e-07
 2.560762e-06
 4.079629e-06
 5.369382e-06
 6.267279e-06
 6.813221e-06
 7.124257e-06
 7.199674e-06
 6.960747e-06
 6.313850e-06
 5.241364e-06
 3.921186e-06
 2.610877e-06
 1.134010e-06
 -3.097599e-06
 -5.238507e-05
 0.000000e+00
 0.000000e+00
 2.190552e-05
 1.461167e-05
 1.198588e-05
 1.072457e-05
 1.007119e-05
 9.818265e-06
 9.918554e-06
 1.031230e-05
 1.087891e-05
 1.149217e-05
 1.208573e-05
 1.267036e-05
 1.331205e-05
 1.406817e-05
 1.490031e-05
 1.564411e-05
 1.607872e-05
 1.602443e-05
 1.538880e-05
 1.416269e-05
 1.240767e-05
 1.023588e-05
 7.800445e-06
 5.331637e-06
 3.129193e-06
 1.422144e-06
 2.308954e-07
 -5.863156e-07
 -1.149819e-06
 -1.435874e-06
 -1.326663e-06
 -7.608723e-07
 1.765406e-07
 1.309819e-06
 2.483905e-06
 3.593045e-06
 4.542511e-06
 5.258097e-06
 5.726067e-06
 5.964827e-06
 5.970928e-06
 5.713964e-06
 5.164694e-06
 4.334176e-06
 3.290910e-06
 2.095461e-06
 6.738544e-07
 -3.218657e-07
 1.689933e-05
 0.000000e+00
 0.000000e+00
 1.482031e-05
 1.187444e-05
 1.081242e-05
 1.026685e-05
 9.991419e-06
 9.923465e-06
 1.005094e-05
 1.034841e-05
 1.076267e-05
 1.123370e-05
 1.172238e-05
 1.222109e-05
 1.274165e-05
 1.328443e-05
 1.380505e-05
 1.420595e-05
 1.436375e-05
 1.417132e-05
 1.356657e-05
 1.254094e-05
 1.113641e-05
 9.437908e-06
 7.568663e-06
 5.688046e-06
 3.968137e-06
 2.538181e-06
 1.440265e-06
 6.461080e-07
 1.203841e-07
 -1.334700e-07
 -8.597898e-08
 2.681369e-07
 8.769822e-07
 1.645334e-06
 2.471573e-06
 3.268099e-06
 3.962602e-06
 4.502716e-06
 4.862435e-06
 5.032776e-06
 5.005095e-06
 4.766537e-06
 4.309043e-06
 3.641099e-06
 2.787169e-06
 1.772889e-06
 6.727456e-07
 3.695169e-07
 -3.523941e-05
 0.000000e+00
 0.000000e+00
 5.273431e-06
 8.081007e-06
 9.188939e-06
 9.566667e-06
 9.710793e-06
 9.829674e-06
 1.000758e-05
 1.026643e-05
 1.059371e-05
 1.096351e-05
 1.135282e-05
 1.174822e-05
 1.214079e-05
 1.251278e-05
 1.282480e-05
 1.301408e-05
 1.300714e-05
 1.273977e-05
 1.217376e-05
 1.130516e-05
 1.016525e-05
 8.817347e-06
 7.351613e-06
 5.876353e-06
 4.500512e-06
 3.308877e-06
 2.345332e-06
 1.618533e-06
 1.124282e-06
 8.629343e-07
 8.369387e-07
 1.034462e-06
 1.417550e-06
 1.925988e-06
 2.491232e-06
 3.048337e-06
 3.542103e-06
 3.930834e-06
 4.187770e-06
 4.297619e-06
 4.250841e-06
 4.041166e-06
 3.667203e-06
 3.133431e-06
 2.443893e-06
 1.585146e-06
 4.870285e-07
 -1.450317e-06
 -3.144986e-07
 0.000000e+00
 0.000000e+00
 -5.771691e-07
 5.964247e-06
 8.193710e-06
 9.058031e-06
 9.437315e-06
 9.667203e-06
 9.877640e-06
 1.011389e-05
 1.038303e-05
 1.067575e-05
 1.097818e-05
 1.127671e-05
 1.155657e-05
 1.179672e-05
 1.196529e-05
 1.202012e-05
 1.191554e-05
 1.161277e-05
 1.108954e-05
 1.034605e-05
 9.406620e-06
 8.317925e-06
 7.144482e-06
 5.960993e-06
 4.841124e-06
 3.845058e-06
 3.011688e-06
 2.359840e-06
 1.896081e-06
 1.621436e-06
 1.531451e-06
 1.611198e-06
 1.831491e-06
 2.150642e-06
 2.520691e-06
 2.894207e-06
 3.229304e-06
 3.492739e-06
 3.661031e-06
 3.719493e-06
 3.660303e-06
 3.481283e-06
 3.185428e-06
 2.778861e-06
 2.262763e-06
 1.610965e-06
 7.211497e-07
 -1.276978e-07
 -1.515578e-07
 0.000000e+00
 0.000000e+00
 3.145849e-06
 7.008169e-06
 8.353855e-06
 8.958067e-06
 9.284003e-06
 9.511772e-06
 9.716071e-06
 9.925941e-06
 1.014819e-05
 1.037850e-05
 1.060737e-05
 1.082280e-05
 1.101013e-05
 1.115031e-05
 1.121881e-05
 1.118676e-05
 1.102502e-05
 1.071009e-05
 1.022970e-05
 9.586692e-06
 8.800312e-06
 7.905063e-06
 6.947280e-06
 5.979633e-06
 5.054094e-06
 4.214983e-06
 3.494523e-06
 2.912357e-06
 2.478020e-06
 2.193489e-06
 2.053666e-06
 2.045167e-06
 2.145526e-06
 2.324545e-06
 2.547660e-06
 2.779989e-06
 2.989860e-06
 3.151284e-06
 3.245240e-06
 3.259924e-06
 3.190494e-06
 3.038912e-06
 2.813887e-06
 2.530108e-06
 2.205318e-06
 1.850436e-06
 1.405069e-06
 -1.063726e-06
 3.129182e-07
 0.000000e+00
 0.000000e+00
 1.286876e-05
 9.753696e-06
 9.140823e-06
 9.098040e-06
 9.213784e-06
 9.373024e-06
 9.545504e-06
 9.723875e-06
 9.904547e-06
 1.008233e-05
 1.024958e-05
 1.039627e-05
 1.050983e-05
 1.057478e-05
 1.057280e-05
 1.048401e-05
 1.028963e-05
 9.975449e-06
 9.535285e-06
 8.973307e-06
 8.304903e-06
 7.555838e-06
 6.759829e-06
 5.954816e-06
 5.178493e-06
 4.464072e-06
 3.837380e-06
 3.315854e-06
 2.909033e-06
 2.619436e-06
 2.442977e-06
 2.368925e-06
 2.380155e-06
 2.454319e-06
 2.565979e-06
 2.689210e-06
 2.800057e-06
 2.878514e-06
 2.909874e-06
 2.885595e-06
 2.803980e-06
 2.671037e-06
 2.501729e-06
 2.321858e-06
 2.172536e-06
 2.131307e-06
 2.441643e-06
 5.355453e-06
 3.626460e-05
 0.000000e+00
 0.000000e+00
 1.674877e-05
 1.094047e-05
 9.492564e-06
 9.117139e-06
 9.111127e-06
 9.223923e-06
 9.369356e-06
 9.519137e-06
 9.663357e-06
 9.796332e-06
 9.911951e-06
 1.000235e-05
 1.005762e-05
 1.006587e-05
 1.001376e-05
 9.887642e-06
 9.675380e-06
 9.368569e-06
 8.964601e-06
 8.468123e-06
 7.891519e-06
 7.254284e-06
 6.581337e-06
 5.900523e-06
 5.239699e-06
 4.623990e-06
 4.073746e-06
 3.603496e-06
 3.221735e-06
 2.931131e-06
 2.728783e-06
 2.606502e-06
 2.551324e-06
 2.546518e-06
 2.573074e-06
 2.611489e-06
 2.643542e-06
 2.653873e-06
 2.631283e-06
 2.569874e-06
 2.470272e-06
 2.341292e-06
 2.202428e-06
 2.087433e-06
 2.048300e-06
 2.155613e-06
 2.486550e-06
 3.710361e-06
 -5.084035e-05
 0.000000e+00
 0.000000e+00
 1.134882e-05
 9.589433e-06
 8.946476e-06
 8.830480e-06
 8.912844e-06
 9.050243e-06
 9.191320e-06
 9.320441e-06
 9.433261e-06
 9.527370e-06
 9.599190e-06
 9.643231e-06
 9.652172e-06
 9.617259e-06
 9.528975e-06
 9.378033e-06
 9.156669e-06
 8.860085e-06
 8.487748e-06
 8.044278e-06
 7.539694e-06
 6.988940e-06
 6.410710e-06
 5.825762e-06
 5.254966e-06
 4.717446e-06
 4.229101e-06
 3.801678e-06
 3.442354e-06
 3.153679e-06
 2.933715e-06
 2.776332e-06
 2.671735e-06
 2.607272e-06
 2.568531e-06
 2.540614e-06
 2.509449e-06
 2.463035e-06
 2.392585e-06
 2.293687e-06
 2.167692e-06
 2.023780e-06
 1.882363e-06
 1.780625e-06
 1.779186e-06
 1.953134e-06
 2.241724e-06
 5.937391e-07
 1.211007e-06
 0.000000e+00
 0.000000e+00
 6.503136e-06
 7.170634e-06
 7.918582e-06
 8.377036e-06
 8.673350e-06
 8.877985e-06
 9.026743e-06
 9.138218e-06
 9.221626e-06
 9.280361e-06
 9.313894e-06
 9.318964e-06
 9.290439e-06
 9.222044e-06
 9.107097e-06
 8.939343e-06
 8.713902e-06
 8.428231e-06
 8.082950e-06
 7.682387e-06
 7.234681e-06
 6.751421e-06
 6.246818e-06
 5.736546e-06
 5.236404e-06
 4.761020e-06
 4.322763e-06
 3.930983e-06
 3.591572e-06
 3.306814e-06
 3.075444e-06
 2.892891e-06
 2.751712e-06
 2.642222e-06
 2.553303e-06
 2.473334e-06
 2.391143e-06
 2.296954e-06
 2.183281e-06
 2.045866e-06
 1.884838e-06
 1.706498e-06
 1.526682e-06
 1.377974e-06
 1.327264e-06
 1.525407e-06
 2.392844e-06
 7.738038e-06
 1.564544e-06
 0.000000e+00
 0.000000e+00
 7.120413e-07
 5.213966e-06
 7.171546e-06
 8.074998e-06
 8.520208e-06
 8.758996e-06
 8.897990e-06
 8.983131e-06
 9.034025e-06
 9.058108e-06
 9.056754e-06
 9.028101e-06
 8.968506e-06
 8.873451e-06
 8.738252e-06
 8.558732e-06
 8.331902e-06
 8.056614e-06
 7.734085e-06
 7.368225e-06
 6.965671e-06
 6.535493e-06
 6.088616e-06
 5.636999e-06
 5.192699e-06
 4.766952e-06
 4.369366e-06
 4.007312e-06
 3.685540e-06
 3.406004e-06
 3.167872e-06
 2.967699e-06
 2.799759e-06
 2.656514e-06
 2.529204e-06
 2.408508e-06
 2.285218e-06
 2.150889e-06
 1.998432e-06
 1.822651e-06
 1.620790e-06
 1.393248e-06
 1.144929e-06
 8.889241e-07
 6.590305e-07
 5.562026e-07
 9.104225e-07
 3.424764e-06
 -8.650595e-05
 0.000000e+00
 0.000000e+00
 -2.648126e-07
 5.427700e-06
 7.361390e-06
 8.179807e-06
 8.552258e-06
 8.730914e-06
 8.819186e-06
 8.860457e-06
 8.872305e-06
 8.860786e-06
 8.826631e-06
 8.768037e-06
 8.682004e-06
 8.565086e-06
 8.413927e-06
 8.225739e-06
 7.998763e-06
 7.732694e-06
 7.429013e-06
 7.091174e-06
 6.724598e-06
 6.336441e-06
 5.935172e-06
 5.529992e-06
 5.130163e-06
 4.744346e-06
 4.379995e-06
 4.042887e-06
 3.736802e-06
 3.463351e-06
 3.221956e-06
 3.009970e-06
 2.822905e-06
 2.654777e-06
 2.498512e-06
 2.346405e-06
 2.190558e-06
 2.023270e-06
 1.837312e-06
 1.626026e-06
 1.383126e-06
 1.101961e-06
 7.736101e-07
 3.822897e-07
 -1.059670e-07
 -7.707544e-07
 -1.786511e-06
 -1.133436e-06
 -3.604522e-05
 0.000000e+00
 0.000000e+00
 7.730302e-06
 8.176277e-06
 8.492836e-06
 8.674991e-06
 8.757005e-06
 8.784441e-06
 8.783557e-06
 8.765482e-06
 8.733150e-06
 8.685712e-06
 8.620762e-06
 8.535343e-06
 8.426404e-06
 8.291057e-06
 8.126804e-06
 7.931779e-06
 7.705020e-06
 7.446721e-06
 7.158431e-06
 6.843157e-06
 6.505329e-06
 6.150623e-06
 5.785650e-06
 5.417530e-06
 5.053413e-06
 4.699990e-06
 4.363041e-06
 4.047076e-06
 3.755064e-06
 3.488292e-06
 3.246323e-06
 3.027066e-06
 2.826933e-06
 2.641070e-06
 2.463632e-06
 2.288077e-06
 2.107422e-06
 1.914423e-06
 1.701596e-06
 1.460981e-06
 1.183416e-06
 8.568746e-07
 4.626397e-07
 -3.412142e-08
 -7.105883e-07
 -1.770256e-06
 -3.847827e-06
 -1.024122e-05
 -7.296593e-05
 0.000000e+00
 0.000000e+00
 1.600562e-05
 1.101001e-05
 9.779949e-06
 9.268778e-06
 9.012515e-06
 8.863778e-06
 8.763841e-06
 8.684194e-06
 8.608873e-06
 8.528073e-06
 8.435350e-06
 8.326197e-06
 8.197276e-06
 8.046041e-06
 7.870602e-06
 7.669746e-06
 7.443045e-06
 7.190984e-06
 6.915076e-06
 6.617906e-06
 6.303095e-06
 5.975160e-06
 5.639280e-06
 5.300987e-06
 4.965816e-06
 4.638943e-06
 4.324846e-06
 4.027026e-06
 3.747795e-06
 3.488151e-06
 3.247726e-06
 3.024826e-06
 2.816526e-06
 2.618822e-06
 2.426799e-06
 2.234810e-06
 2.036598e-06
 1.825336e-06
 1.593494e-06
 1.332458e-06
 1.031695e-06
 6.771642e-07
 2.483410e-07
 -2.874366e-07
 -9.860304e-07
 -1.950367e-06
 -3.408460e-06
 -7.609506e-06
 6.697585e-05
 0.000000e+00
 0.000000e+00
 1.457354e-05
 1.201397e-05
 1.050034e-05
 9.645880e-06
 9.172054e-06
 8.898521e-06
 8.725682e-06
 8.599526e-06
 8.490603e-06
 8.382662e-06
 8.266554e-06
 8.136944e-06
 7.990567e-06
 7.825339e-06
 7.639946e-06
 7.433713e-06
 7.206603e-06
 6.959277e-06
 6.693157e-06
 6.410447e-06
 6.114098e-06
 5.807703e-06
 5.495323e-06
 5.181261e-06
 4.869804e-06
 4.564954e-06
 4.270172e-06
 3.988165e-06
 3.720713e-06
 3.468567e-06
 3.231397e-06
 3.007804e-06
 2.795374e-06
 2.590770e-06
 2.389833e-06
 2.187674e-06
 1.978716e-06
 1.756657e-06
 1.514287e-06
 1.243115e-06
 9.327290e-07
 5.698596e-07
 1.374194e-07
 -3.849405e-07
 -1.011197e-06
 -1.692935e-06
 -2.007005e-06
 2.194037e-06
 1.621649e-05
 0.000000e+00
 0.000000e+00
 1.470669e-05
 1.205560e-05
 1.056245e-05
 9.663391e-06
 9.144438e-06
 8.839721e-06
 8.644678e-06
 8.499689e-06
 8.372460e-06
 8.246015e-06
 8.111582e-06
 7.964641e-06
 7.802832e-06
 7.624903e-06
 7.430236e-06
 7.218674e-06
 6.990504e-06
 6.746496e-06
 6.487955e-06
 6.216736e-06
 5.935228e-06
 5.646273e-06
 5.353045e-06
 5.058882e-06
 4.767095e-06
 4.480769e-06
 4.202569e-06
 3.934574e-06
 3.678142e-06
 3.433827e-06
 3.201322e-06
 2.979465e-06
 2.766259e-06
 2.558930e-06
 2.353977e-06
 2.147219e-06
 1.933791e-06
 1.708083e-06
 1.463568e-06
 1.192517e-06
 8.855859e-07
 5.314176e-07
 1.166494e-07
 -3.723940e-07
 -9.433362e-07
 -1.584783e-06
 -2.307454e-06
 -5.636202e-06
 -3.623432e-05
 0.000000e+00
 0.000000e+00
 1.420227e-05
 1.129423e-05
 1.002662e-05
 9.311066e-06
 8.913490e-06
 8.678663e-06
 8.517993e-06
 8.384508e-06
 8.254815e-06
 8.118015e-06
 7.969449e-06
 7.807377e-06
 7.631315e-06
 7.441279e-06
 7.237492e-06
 7.020323e-06
 6.790331e-06
 6.548343e-06
 6.295520e-06
 6.033392e-06
 5.763860e-06
 5.489144e-06
 5.211697e-06
 4.934088e-06
 4.658855e-06
 4.388360e-06
 4.124641e-06
 3.869283e-06
 3.623313e-06
 3.387131e-06
 3.160461e-06
 2.942343e-06
 2.731148e-06
 2.524602e-06
 2.319816e-06
 2.113310e-06
 1.900997e-06
 1.678118e-06
 1.439121e-06
 1.177452e-06
 8.853084e-07
 5.534051e-07
 1.708950e-07
 -2.746886e-07
 -7.997341e-07
 -1.441725e-06
 -2.335929e-06
 -3.952772e-06
 6.827111e-05
 0.000000e+00
 0.000000e+00
 1.186074e-05
 9.709819e-06
 8.944067e-06
 8.656372e-06
 8.530873e-06
 8.450150e-06
 8.367853e-06
 8.267487e-06
 8.145239e-06
 8.002224e-06
 7.841010e-06
 7.664173e-06
 7.473800e-06
 7.271429e-06
 7.058162e-06
 6.834839e-06
 6.602211e-06
 6.361089e-06
 6.112452e-06
 5.857508e-06
 5.597716e-06
 5.334764e-06
 5.070508e-06
 4.806888e-06
 4.545823e-06
 4.289100e-06
 4.038258e-06
 3.794496e-06
 3.558584e-06
 3.330808e-06
 3.110934e-06
 2.898192e-06
 2.691288e-06
 2.488413e-06
 2.287275e-06
 2.085101e-06
 1.878637e-06
 1.664108e-06
 1.437135e-06
 1.192611e-06
 9.245236e-07
 6.257571e-07
 2.878314e-07
 -9.966993e-08
 -5.513037e-07
 -1.093620e-06
 -1.776148e-06
 -3.824918e-06
 -1.300416e-06
 0.000000e+00
 0.000000e+00
 7.910201e-06
 6.964777e-06
 7.468703e-06
 7.865221e-06
 8.113706e-06
 8.227646e-06
 8.237667e-06
 8.173062e-06
 8.056621e-06
 7.904608e-06
 7.728102e-06
 7.534408e-06
 7.328209e-06
 7.112432e-06
 6.888874e-06
 6.658670e-06
 6.422613e-06
 6.181390e-06
 5.935734e-06
 5.686510e-06
 5.434762e-06
 5.181703e-06
 4.928678e-06
 4.677109e-06
 4.428409e-06
 4.183899e-06
 3.944725e-06
 3.711778e-06
 3.485631e-06
 3.266495e-06
 3.054186e-06
 2.848120e-06
 2.647315e-06
 2.450411e-06
 2.255690e-06
 2.061095e-06
 1.864243e-06
 1.662420e-06
 1.452552e-06
 1.231148e-06
 9.941960e-07
 7.369776e-07
 4.537923e-07
 1.378353e-07
 -2.170495e-07
 -6.072027e-07
 -1.014162e-06
 -3.113409e-06
 6.915161e-05
 0.000000e+00
 0.000000e+00
 -6.722802e-07
 4.214578e-06
 6.116469e-06
 7.231159e-06
 7.833247e-06
 8.108490e-06
 8.180902e-06
 8.129356e-06
 8.002713e-06
 7.830866e-06
 7.631952e-06
 7.416860e-06
 7.192015e-06
 6.961106e-06
 6.726180e-06
 6.488338e-06
 6.248190e-06
 6.006149e-06
 5.762612e-06
 5.518067e-06
 5.273143e-06
 5.028618e-06
 4.785393e-06
 4.544447e-06
 4.306775e-06
 4.073320e-06
 3.844911e-06
 3.622197e-06
 3.405602e-06
 3.195287e-06
 2.991129e-06
 2.792722e-06
 2.599382e-06
 2.410170e-06
 2.223924e-06
 2.039290e-06
 1.854761e-06
 1.668709e-06
 1.479420e-06
 1.285121e-06
 1.083971e-06
 8.739491e-07
 6.524489e-07
 4.154363e-07
 1.576931e-07
 -1.112246e-07
 -2.300710e-07
 9.871721e-07
 3.483964e-05
 0.000000e+00
 0.000000e+00
 -1.816371e-07
 2.650387e-06
 5.523542e-06
 7.097066e-06
 7.869223e-06
 8.184699e-06
 8.243223e-06
 8.157694e-06
 7.992123e-06
 7.783028e-06
 7.551264e-06
 7.308628e-06
 7.061622e-06
 6.813648e-06
 6.566324e-06
 6.320281e-06
 6.075660e-06
 5.832422e-06
 5.590523e-06
 5.350028e-06
 5.111147e-06
 4.874247e-06
 4.639833e-06
 4.408503e-06
 4.180902e-06
 3.957666e-06
 3.739363e-06
 3.526454e-06
 3.319247e-06
 3.117872e-06
 2.922275e-06
 2.732215e-06
 2.547283e-06
 2.366932e-06
 2.190521e-06
 2.017362e-06
 1.846788e-06
 1.678225e-06
 1.511290e-06
 1.345921e-06
 1.182536e-06
 1.022164e-06
 8.662114e-07
 7.144447e-07
 5.560843e-07
 3.357977e-07
 -1.742336e-07
 -3.300144e-06
 1.732949e-05
 0.000000e+00
 0.000000e+00
 -6.742380e-06
 2.876437e-06
 6.240924e-06
 7.729284e-06
 8.337849e-06
 8.504084e-06
 8.441899e-06
 8.261746e-06
 8.022584e-06
 7.756423e-06
 7.480605e-06
 7.204271e-06
 6.931911e-06
 6.665385e-06
 6.405110e-06
 6.150773e-06
 5.901751e-06
 5.657372e-06
 5.417058e-06
 5.180402e-06
 4.947191e-06
 4.717407e-06
 4.491195e-06
 4.268828e-06
 4.050656e-06
 3.837058e-06
 3.628397e-06
 3.424980e-06
 3.227026e-06
 3.034649e-06
 2.847857e-06
 2.666557e-06
 2.490586e-06
 2.319747e-06
 2.153867e-06
 1.992864e-06
 1.836835e-06
 1.686165e-06
 1.541675e-06
 1.404847e-06
 1.278184e-06
 1.165833e-06
 1.074563e-06
 1.014527e-06
 9.951513e-07
 9.906009e-07
 7.482732e-07
 -3.066644e-06
 7.000281e-05
 0.000000e+00
 0.000000e+00
 2.238692e-06
 6.934716e-06
 8.613556e-06
 9.165025e-06
 9.215901e-06
 9.036229e-06
 8.750631e-06
 8.420619e-06
 8.077749e-06
 7.738184e-06
 7.409728e-06
 7.095526e-06
 6.796138e-06
 6.510754e-06
 6.237914e-06
 5.975944e-06
 5.723216e-06
 5.478287e-06
 5.239969e-06
 5.007362e-06
 4.779837e-06
 4.557015e-06
 4.338726e-06
 4.124963e-06
 3.915832e-06
 3.711503e-06
 3.512173e-06
 3.318025e-06
 3.129208e-06
 2.945825e-06
 2.767933e-06
 2.595564e-06
 2.428759e-06
 2.267618e-06
 2.112366e-06
 1.963440e-06
 1.821594e-06
 1.688029e-06
 1.564561e-06
 1.453872e-06
 1.359952e-06
 1.289056e-06
 1.252091e-06
 1.270941e-06
 1.395758e-06
 1.753963e-06
 2.701667e-06
 4.370285e-06
 7.152532e-05
 0.000000e+00
 0.000000e+00
 1.653660e-05
 1.331498e-05
 1.198451e-05
 1.104971e-05
 1.030340e-05
 9.664933e-06
 9.099228e-06
 8.589967e-06
 8.128297e-06
 7.708100e-06
 7.324187e-06
 6.971749e-06
 6.646262e-06
 6.343549e-06
 6.059856e-06
 5.791908e-06
 5.536928e-06
 5.292636e-06
 5.057217e-06
 4.829282e-06
 4.607814e-06
 4.392117e-06
 4.181751e-06
 3.976478e-06
 3.776208e-06
 3.580947e-06
 3.390759e-06
 3.205731e-06
 3.025950e-06
 2.851505e-06
 2.682487e-06
 2.519017e-06
 2.361290e-06
 2.209634e-06
 2.064590e-06
 1.927009e-06
 1.798174e-06