<VTKFile type="UnstructuredGrid"  version="0.1"   >
<UnstructuredGrid>  
<Piece  NumberOfPoints="     2601"  NumberOfCells="     5000">  
<Points>  
<DataArray  type="Float64"  NumberOfComponents="3"  format="ascii">  
 0.000000 0.000000 0.000000 
 0.020000 0.000000 0.000000 
 0.040000 0.000000 0.000000 
 0.060000 0.000000 0.000000 
 0.080000 0.000000 0.000000 
 0.100000 0.000000 0.000000 
 0.120000 0.000000 0.000000 
 0.140000 0.000000 0.000000 
 0.160000 0.000000 0.000000 
 0.180000 0.000000 0.000000 
 0.200000 0.000000 0.000000 
 0.220000 0.000000 0.000000 
 0.240000 0.000000 0.000000 
 0.260000 0.000000 0.000000 
 0.280000 0.000000 0.000000 
 0.300000 0.000000 0.000000 
 0.320000 0.000000 0.000000 
 0.340000 0.000000 0.000000 
 0.360000 0.000000 0.000000 
 0.380000 0.000000 0.000000 
 0.400000 0.000000 0.000000 
 0.420000 0.000000 0.000000 
 0.440000 0.000000 0.000000 
 0.460000 0.000000 0.000000 
 0.480000 0.000000 0.000000 
 0.500000 0.000000 0.000000 
 0.520000 0.000000 0.000000 
 0.540000 0.000000 0.000000 
 0.560000 0.000000 0.000000 
 0.580000 0.000000 0.000000 
 0.600000 0.000000 0.000000 
 0.620000 0.000000 0.000000 
 0.640000 0.000000 0.000000 
 0.660000 0.000000 0.000000 
 0.680000 0.000000 0.000000 
 0.700000 0.000000 0.000000 
 0.720000 0.000000 0.000000 
 0.740000 0.000000 0.000000 
 0.760000 0.000000 0.000000 
 0.780000 0.000000 0.000000 
 0.800000 0.000000 0.000000 
 0.820000 0.000000 0.000000 
 0.840000 0.000000 0.000000 
 0.860000 0.000000 0.000000 
 0.880000 0.000000 0.000000 
 0.900000 0.000000 0.000000 
 0.920000 0.000000 0.000000 
 0.940000 0.000000 0.000000 
 0.960000 0.000000 0.000000 
 0.980000 0.000000 0.000000 
 1.000000 0.000000 0.000000 
 0.000000 0.020000 0.000000 
 0.020000 0.020000 0.000000 
 0.040000 0.020000 0.000000 
 0.060000 0.020000 0.000000 
 0.080000 0.020000 0.000000 
 0.100000 0.020000 0.000000 
 0.120000 0.020000 0.000000 
 0.140000 0.020000 0.000000 
 0.160000 0.020000 0.000000 
 0.180000 0.020000 0.000000 
 0.200000 0.020000 0.000000 
 0.220000 0.020000 0.000000 
 0.240000 0.020000 0.000000 
 0.260000 0.020000 0.000000 
 0.280000 0.020000 0.000000 
 0.300000 0.020000 0.000000 
 0.320000 0.020000 0.000000 
 0.340000 0.020000 0.000000 
 0.360000 0.020000 0.000000 
 0.380000 0.020000 0.000000 
 0.400000 0.020000 0.000000 
 0.420000 0.020000 0.000000 
 0.440000 0.020000 0.000000 
 0.460000 0.020000 0.000000 
 0.480000 0.020000 0.000000 
 0.500000 0.020000 0.000000 
 0.520000 0.020000 0.000000 
 0.540000 0.020000 0.000000 
 0.560000 0.020000 0.000000 
 0.580000 0.020000 0.000000 
 0.600000 0.020000 0.000000 
 0.620000 0.020000 0.000000 
 0.640000 0.020000 0.000000 
 0.660000 0.020000 0.000000 
 0.680000 0.020000 0.000000 
 0.700000 0.020000 0.000000 
 0.720000 0.020000 0.000000 
 0.740000 0.020000 0.000000 
 0.760000 0.020000 0.000000 
 0.780000 0.020000 0.000000 
 0.800000 0.020000 0.000000 
 0.820000 0.020000 0.000000 
 0.840000 0.020000 0.000000 
 0.860000 0.020000 0.000000 
 0.880000 0.020000 0.000000 
 0.900000 0.020000 0.000000 
 0.920000 0.020000 0.000000 
 0.940000 0.020000 0.000000 
 0.960000 0.020000 0.000000 
 0.980000 0.020000 0.000000 
 1.000000 0.020000 0.000000 
 0.000000 0.040000 0.000000 
 0.020000 0.040000 0.000000 
 0.040000 0.040000 0.000000 
 0.060000 0.040000 0.000000 
 0.080000 0.040000 0.000000 
 0.100000 0.040000 0.000000 
 0.120000 0.040000 0.000000 
 0.140000 0.040000 0.000000 
 0.160000 0.040000 0.000000 
 0.180000 0.040000 0.000000 
 0.200000 0.040000 0.000000 
 0.220000 0.040000 0.000000 
 0.240000 0.040000 0.000000 
 0.260000 0.040000 0.000000 
 0.280000 0.040000 0.000000 
 0.300000 0.040000 0.000000 
 0.320000 0.040000 0.000000 
 0.340000 0.040000 0.000000 
 0.360000 0.040000 0.000000 
 0.380000 0.040000 0.000000 
 0.400000 0.040000 0.000000 
 0.420000 0.040000 0.000000 
 0.440000 0.040000 0.000000 
 0.460000 0.040000 0.000000 
 0.480000 0.040000 0.000000 
 0.500000 0.040000 0.000000 
 0.520000 0.040000 0.000000 
 0.540000 0.040000 0.000000 
 0.560000 0.040000 0.000000 
 0.580000 0.040000 0.000000 
 0.600000 0.040000 0.000000 
 0.620000 0.040000 0.000000 
 0.640000 0.040000 0.000000 
 0.660000 0.040000 0.000000 
 0.680000 0.040000 0.000000 
 0.700000 0.040000 0.000000 
 0.720000 0.040000 0.000000 
 0.740000 0.040000 0.000000 
 0.760000 0.040000 0.000000 
 0.780000 0.040000 0.000000 
 0.800000 0.040000 0.000000 
 0.820000 0.040000 0.000000 
 0.840000 0.040000 0.000000 
 0.860000 0.040000 0.000000 
 0.880000 0.040000 0.000000 
 0.900000 0.040000 0.000000 
 0.920000 0.040000 0.000000 
 0.940000 0.040000 0.000000 
 0.960000 0.040000 0.000000 
 0.980000 0.040000 0.000000 
 1.000000 0.040000 0.000000 
 0.000000 0.060000 0.000000 
 0.020000 0.060000 0.000000 
 0.040000 0.060000 0.000000 
 0.060000 0.060000 0.000000 
 0.080000 0.060000 0.000000 
 0.100000 0.060000 0.000000 
 0.120000 0.060000 0.000000 
 0.140000 0.060000 0.000000 
 0.160000 0.060000 0.000000 
 0.180000 0.060000 0.000000 
 0.200000 0.060000 0.000000 
 0.220000 0.060000 0.000000 
 0.240000 0.060000 0.000000 
 0.260000 0.060000 0.000000 
 0.280000 0.060000 0.000000 
 0.300000 0.060000 0.000000 
 0.320000 0.060000 0.000000 
 0.340000 0.060000 0.000000 
 0.360000 0.060000 0.000000 
 0.380000 0.060000 0.000000 
 0.400000 0.060000 0.000000 
 0.420000 0.060000 0.000000 
 0.440000 0.060000 0.000000 
 0.460000 0.060000 0.000000 
 0.480000 0.060000 0.000000 
 0.500000 0.060000 0.000000 
 0.520000 0.060000 0.000000 
 0.540000 0.060000 0.000000 
 0.560000 0.060000 0.000000 
 0.580000 0.060000 0.000000 
 0.600000 0.060000 0.000000 
 0.620000 0.060000 0.000000 
 0.640000 0.060000 0.000000 
 0.660000 0.060000 0.000000 
 0.680000 0.060000 0.000000 
 0.700000 0.060000 0.000000 
 0.720000 0.060000 0.000000 
 0.740000 0.060000 0.000000 
 0.760000 0.060000 0.000000 
 0.780000 0.060000 0.000000 
 0.800000 0.060000 0.000000 
 0.820000 0.060000 0.000000 
 0.840000 0.060000 0.000000 
 0.860000 0.060000 0.000000 
 0.880000 0.060000 0.000000 
 0.900000 0.060000 0.000000 
 0.920000 0.060000 0.000000 
 0.940000 0.060000 0.000000 
 0.960000 0.060000 0.000000 
 0.980000 0.060000 0.000000 
 1.000000 0.060000 0.000000 
 0.000000 0.080000 0.000000 
 0.020000 0.080000 0.000000 
 0.040000 0.080000 0.000000 
 0.060000 0.080000 0.000000 
 0.080000 0.080000 0.000000 
 0.100000 0.080000 0.000000 
 0.120000 0.080000 0.000000 
 0.140000 0.080000 0.000000 
 0.160000 0.080000 0.000000 
 0.180000 0.080000 0.000000 
 0.200000 0.080000 0.000000 
 0.220000 0.080000 0.000000 
 0.240000 0.080000 0.000000 
 0.260000 0.080000 0.000000 
 0.280000 0.080000 0.000000 
 0.300000 0.080000 0.000000 
 0.320000 0.080000 0.000000 
 0.340000 0.080000 0.000000 
 0.360000 0.080000 0.000000 
 0.380000 0.080000 0.000000 
 0.400000 0.080000 0.000000 
 0.420000 0.080000 0.000000 
 0.440000 0.080000 0.000000 
 0.460000 0.080000 0.000000 
 0.480000 0.080000 0.000000 
 0.500000 0.080000 0.000000 
 0.520000 0.080000 0.000000 
 0.540000 0.080000 0.000000 
 0.560000 0.080000 0.000000 
 0.580000 0.080000 0.000000 
 0.600000 0.080000 0.000000 
 0.620000 0.080000 0.000000 
 0.640000 0.080000 0.000000 
 0.660000 0.080000 0.000000 
 0.680000 0.080000 0.000000 
 0.700000 0.080000 0.000000 
 0.720000 0.080000 0.000000 
 0.740000 0.080000 0.000000 
 0.760000 0.080000 0.000000 
 0.780000 0.080000 0.000000 
 0.800000 0.080000 0.000000 
 0.820000 0.080000 0.000000 
 0.840000 0.080000 0.000000 
 0.860000 0.080000 0.000000 
 0.880000 0.080000 0.000000 
 0.900000 0.080000 0.000000 
 0.920000 0.080000 0.000000 
 0.940000 0.080000 0.000000 
 0.960000 0.080000 0.000000 
 0.980000 0.080000 0.000000 
 1.000000 0.080000 0.000000 
 0.000000 0.100000 0.000000 
 0.020000 0.100000 0.000000 
 0.040000 0.100000 0.000000 
 0.060000 0.100000 0.000000 
 0.080000 0.100000 0.000000 
 0.100000 0.100000 0.000000 
 0.120000 0.100000 0.000000 
 0.140000 0.100000 0.000000 
 0.160000 0.100000 0.000000 
 0.180000 0.100000 0.000000 
 0.200000 0.100000 0.000000 
 0.220000 0.100000 0.000000 
 0.240000 0.100000 0.000000 
 0.260000 0.100000 0.000000 
 0.280000 0.100000 0.000000 
 0.300000 0.100000 0.000000 
 0.320000 0.100000 0.000000 
 0.340000 0.100000 0.000000 
 0.360000 0.100000 0.000000 
 0.380000 0.100000 0.000000 
 0.400000 0.100000 0.000000 
 0.420000 0.100000 0.000000 
 0.440000 0.100000 0.000000 
 0.460000 0.100000 0.000000 
 0.480000 0.100000 0.000000 
 0.500000 0.100000 0.000000 
 0.520000 0.100000 0.000000 
 0.540000 0.100000 0.000000 
 0.560000 0.100000 0.000000 
 0.580000 0.100000 0.000000 
 0.600000 0.100000 0.000000 
 0.620000 0.100000 0.000000 
 0.640000 0.100000 0.000000 
 0.660000 0.100000 0.000000 
 0.680000 0.100000 0.000000 
 0.700000 0.100000 0.000000 
 0.720000 0.100000 0.000000 
 0.740000 0.100000 0.000000 
 0.760000 0.100000 0.000000 
 0.780000 0.100000 0.000000 
 0.800000 0.100000 0.000000 
 0.820000 0.100000 0.000000 
 0.840000 0.100000 0.000000 
 0.860000 0.100000 0.000000 
 0.880000 0.100000 0.000000 
 0.900000 0.100000 0.000000 
 0.920000 0.100000 0.000000 
 0.940000 0.100000 0.000000 
 0.960000 0.100000 0.000000 
 0.980000 0.100000 0.000000 
 1.000000 0.100000 0.000000 
 0.000000 0.120000 0.000000 
 0.020000 0.120000 0.000000 
 0.040000 0.120000 0.000000 
 0.060000 0.120000 0.000000 
 0.080000 0.120000 0.000000 
 0.100000 0.120000 0.000000 
 0.120000 0.120000 0.000000 
 0.140000 0.120000 0.000000 
 0.160000 0.120000 0.000000 
 0.180000 0.120000 0.000000 
 0.200000 0.120000 0.000000 
 0.220000 0.120000 0.000000 
 0.240000 0.120000 0.000000 
 0.260000 0.120000 0.000000 
 0.280000 0.120000 0.000000 
 0.300000 0.120000 0.000000 
 0.320000 0.120000 0.000000 
 0.340000 0.120000 0.000000 
 0.360000 0.120000 0.000000 
 0.380000 0.120000 0.000000 
 0.400000 0.120000 0.000000 
 0.420000 0.120000 0.000000 
 0.440000 0.120000 0.000000 
 0.460000 0.120000 0.000000 
 0.480000 0.120000 0.000000 
 0.500000 0.120000 0.000000 
 0.520000 0.120000 0.000000 
 0.540000 0.120000 0.000000 
 0.560000 0.120000 0.000000 
 0.580000 0.120000 0.000000 
 0.600000 0.120000 0.000000 
[...]
<PointData  Scalars="U"> 
<DataArray  type="Float64"  Name="U"  format="ascii"> 
 0.000000e+00
 0.000000e+00
 0.000000e+00
 0.000000e+00
 0.000000e+00
 0.000000e+00
 0.000000e+00
 0.000000e+00
 0.000000e+00
 0.000000e+00
 0.000000e+00
 0.000000e+00
 0.000000e+00
 0.000000e+00
 0.000000e+00
 0.000000e+00
 0.000000e+00
 0.000000e+00
 0.000000e+00
 0.000000e+00
 0.000000e+00
 0.000000e+00
 0.000000e+00
 0.000000e+00
 0.000000e+00
 0.000000e+00
 0.000000e+00
 0.000000e+00
 0.000000e+00
 0.000000e+00
 0.000000e+00
 0.000000e+00
 0.000000e+00
 0.000000e+00
 0.000000e+00
 0.000000e+00
 0.000000e+00
 0.000000e+00
 0.000000e+00
 0.000000e+00
 0.000000e+00
 0.000000e+00
 0.000000e+00
 0.000000e+00
 0.000000e+00
 0.000000e+00
 0.000000e+00
 0.000000e+00
 0.000000e+00
 0.000000e+00
 0.000000e+00
 0.000000e+00
 2.191246e-06
 1.475091e-05
 1.528079e-05
 1.015547e-05
 1.454840e-05
 1.462349e-05
 7.815506e-06
 1.319363e-05
 1.444511e-05
 1.123938e-05
 1.679256e-05
 1.472962e-05
 1.120383e-05
 1.186250e-05
 2.618047e-05
 3.064648e-05
 3.573705e-05
 3.499244e-05
 3.742647e-05
 3.922846e-05
 2.471601e-05
 1.855533e-05
 1.522503e-05
 -4.368291e-06
 -2.385837e-05
 -2.160213e-05
 -7.676719e-06
 -2.276520e-07
 -4.092875e-06
 -1.419448e-05
 -1.839913e-05
 -1.090008e-05
 5.191965e-06
 8.413444e-06
 1.075771e-05
 1.574200e-05
 2.696727e-05
 1.801443e-05
 7.247514e-06
 1.357409e-05
 1.327486e-05
 1.291613e-05
 1.537370e-05
 9.161999e-06
 1.521128e-07
 -7.615125e-06
 -8.525183e-06
 -2.033491e-06
 6.503315e-05
 0.000000e+00
 0.000000e+00
 5.077215e-06
 1.117910e-05
 1.283638e-05
 1.263227e-05
 1.292722e-05
 1.251099e-05
 1.170969e-05
 1.235856e-05
 1.285287e-05
 1.323346e-05
 1.405016e-05
 1.420790e-05
 1.422504e-05
 1.660000e-05
 2.125441e-05
 2.528919e-05
 2.784822e-05
 2.883667e-05
 2.899992e-05
 2.680937e-05
 2.142866e-05
 1.566101e-05
 8.936352e-06
 -3.206790e-07
 -7.986076e-06
 -9.354073e-06
 -6.333225e-06
 -4.028267e-06
 -5.028373e-06
 -7.527208e-06
 -7.951023e-06
 -4.106381e-06
 1.703694e-06
 6.077425e-06
 9.290108e-06
 1.279456e-05
 1.513845e-05
 1.347138e-05
 1.107207e-05
 1.083657e-05
 1.080719e-05
 1.047103e-05
 9.370457e-06
 6.208707e-06
 1.931416e-06
 -1.246273e-06
 -7.565495e-07
 7.363272e-06
 -1.706487e-05
 0.000000e+00
 0.000000e+00
 1.186262e-05
 1.336155e-05
 1.347648e-05
 1.318509e-05
 1.292304e-05
 1.262163e-05
 1.240476e-05
 1.256238e-05
 1.289819e-05
 1.332070e-05
 1.384753e-05
 1.438763e-05
 1.524421e-05
 1.699736e-05
 1.951431e-05
 2.191258e-05
 2.353868e-05
 2.413988e-05
 2.360928e-05
 2.157704e-05
 1.799928e-05
 1.346975e-05
 8.219469e-06
 2.597634e-06
 -1.884851e-06
 -3.843513e-06
 -3.768414e-06
 -3.347970e-06
 -3.611793e-06
 -4.090124e-06
 -3.551035e-06
 -1.334113e-06
 1.889982e-06
 5.015988e-06
 7.682586e-06
 9.881577e-06
 1.110850e-05
 1.093074e-05
 1.014829e-05
 9.607071e-06
 9.152426e-06
 8.440279e-06
 7.149980e-06
 5.077060e-06
 2.667948e-06
 8.743971e-07
 5.431200e-07
 3.603486e-06
 -6.894661e-05
 0.000000e+00
 0.000000e+00
 2.270388e-05
 1.650270e-05
 1.452998e-05
 1.356347e-05
 1.302711e-05
 1.270988e-05
 1.257391e-05
 1.264531e-05
 1.288396e-05
 1.324681e-05
 1.372298e-05
 1.433666e-05
 1.520929e-05
 1.646236e-05
 1.797499e-05
 1.937730e-05
 2.029599e-05
 2.048369e-05
 1.978023e-05
 1.806773e-05
 1.538933e-05
 1.198841e-05
 8.167953e-06
 4.373894e-06
 1.283128e-06
 -6.008489e-07
 -1.401343e-06
 -1.680886e-06
 -1.839021e-06
 -1.777544e-06
 -1.113749e-06
 3.464715e-07
 2.362668e-06
 4.489188e-06
 6.406554e-06
 7.913637e-06
 8.799253e-06
 8.990439e-06
 8.730529e-06
 8.305845e-06
 7.759101e-06
 6.980514e-06
 5.853050e-06
 4.375957e-06
 2.775909e-06
 1.385442e-06
 1.362162e-07
 -3.736905e-06
 -5.280326e-05
 0.000000e+00
 0.000000e+00
 2.415152e-05
 1.731527e-05
 1.475396e-05
 1.355131e-05
 1.294204e-05
 1.263052e-05
 1.251504e-05
 1.256369e-05
 1.275253e-05
 1.306107e-05
 1.348316e-05
 1.403356e-05
 1.474442e-05
 1.561659e-05
 1.655135e-05
 1.735195e-05
 1.779968e-05
 1.771796e-05
 1.698988e-05
 1.556728e-05
 1.350073e-05
 1.094789e-05
 8.148953e-06
 5.420896e-06
 3.115857e-06
 1.471346e-06
 4.819544e-07
 -3.393400e-08
 -2.304021e-07
 -1.058992e-07
 4.375330e-07
 1.433453e-06
 2.759915e-06
 4.195793e-06
 5.527272e-06
 6.587000e-06
 7.256844e-06
 7.508039e-06
 7.420907e-06
 7.102780e-06
 6.597354e-06
 5.887340e-06
 4.951446e-06
 3.824734e-06
 2.626752e-06
 1.517601e-06
 6.545278e-07
 2.177435e-06
 1.722200e-05
 0.000000e+00
 0.000000e+00
 1.925463e-05
 1.526604e-05
 1.378666e-05
 1.301415e-05
 1.258797e-05
 1.236558e-05
 1.229131e-05
 1.234226e-05
 1.250402e-05
 1.276522e-05
 1.311955e-05
 1.356581e-05
 1.409914e-05
 1.468921e-05
 1.525898e-05
 1.568817e-05
 1.584301e-05
 1.560888e-05
 1.491135e-05
 1.373011e-05
 1.211082e-05
 1.016703e-05
 8.069311e-06
 6.025505e-06
 4.240683e-06
 2.854381e-06
 1.899081e-06
 1.325840e-06
 1.076579e-06
 1.133651e-06
 1.505254e-06
 2.171845e-06
 3.051831e-06
 4.015829e-06
 4.925983e-06
 5.665457e-06
 6.155367e-06
 6.368701e-06
 6.328073e-06
 6.075481e-06
 5.639547e-06
 5.030160e-06
 4.257205e-06
 3.352967e-06
 2.380026e-06
 1.427593e-06
 6.826062e-07
 1.792325e-06
 -6.986134e-05
 0.000000e+00
 0.000000e+00
 1.061995e-05
 1.179388e-05
 1.219360e-05
 1.216168e-05
 1.204289e-05
 1.195728e-05
 1.194324e-05
 1.201032e-05
 1.215699e-05
 1.237733e-05
 1.266387e-05
 1.300683e-05
 1.338850e-05
 1.377405e-05
 1.410491e-05
 1.430240e-05
 1.428218e-05
 1.397220e-05
 1.332785e-05
 1.234275e-05
 1.105503e-05
 9.546904e-06
 7.936225e-06
 6.359659e-06
 4.946881e-06
 3.791263e-06
 2.933428e-06
 2.370531e-06
 2.082795e-06
 2.053345e-06
 2.265984e-06
 2.688127e-06
 3.258812e-06
 3.893636e-06
 4.501611e-06
 5.002562e-06
 5.339774e-06
 5.486644e-06
 5.443995e-06
 5.227662e-06
 4.855109e-06
 4.340746e-06
 3.699937e-06
 2.953240e-06
 2.120383e-06
 1.194158e-06
 5.264418e-08
 -1.945433e-06
 -1.796239e-05
 0.000000e+00
 0.000000e+00
 4.201267e-06
 9.467186e-06
 1.094797e-05
 1.136380e-05
 1.145328e-05
 1.147343e-05
 1.151244e-05
 1.159815e-05
 1.173613e-05
 1.192298e-05
 1.215060e-05
 1.240622e-05
 1.266970e-05
 1.290990e-05
 1.308316e-05
 1.313650e-05
 1.301581e-05
 1.267638e-05
 1.209269e-05
 1.126558e-05
 1.022579e-05
 9.032747e-06
 7.768027e-06
 6.523605e-06
 5.386291e-06
 4.422547e-06
 3.670252e-06
 3.141286e-06
 2.831317e-06
 2.728028e-06
 2.811913e-06
 3.051598e-06
 3.400584e-06
 3.800251e-06
 4.188314e-06
 4.508694e-06
 4.719423e-06
 4.796643e-06
 4.733572e-06
 4.535270e-06
 4.212628e-06
 3.778941e-06
 3.248946e-06
 2.636129e-06
 1.940963e-06
 1.117419e-06
 7.405632e-09
 -5.394002e-07
 -1.811006e-05
 0.000000e+00
 0.000000e+00
 7.401063e-06
 9.778668e-06
 1.057529e-05
 1.082576e-05
 1.090950e-05
 1.096231e-05
 1.103178e-05
 1.113243e-05
 1.126573e-05
 1.142714e-05
 1.160814e-05
 1.179587e-05
 1.197192e-05
 1.211099e-05
 1.218109e-05
 1.214622e-05
 1.197144e-05
 1.162931e-05
 1.110606e-05
 1.040603e-05
 9.553652e-06
 8.592119e-06
 7.578675e-06
 6.576849e-06
 5.647024e-06
 4.837821e-06
 4.181103e-06
 3.691964e-06
 3.372138e-06
 3.213507e-06
 3.199317e-06
 3.303581e-06
 3.491030e-06
 3.719567e-06
 3.945164e-06
 4.127642e-06
 4.235561e-06
 4.248928e-06
 4.159261e-06
 3.967531e-06
 3.681466e-06
 3.313470e-06
 2.879154e-06
 2.394824e-06
 1.871216e-06
 1.296457e-06
 5.482013e-07
 -2.612526e-06
 -1.778401e-05
 0.000000e+00
 0.000000e+00
 1.425821e-05
 1.143483e-05
 1.065241e-05
 1.042074e-05
 1.038422e-05
 1.042982e-05
 1.051808e-05
 1.063318e-05
 1.076659e-05
 1.091105e-05
 1.105800e-05
 1.119603e-05
 1.130993e-05
 1.138029e-05
 1.138415e-05
 1.129712e-05
 1.109673e-05
 1.076648e-05
 1.029965e-05
 9.702068e-06
 8.993094e-06
 8.204499e-06
 7.377164e-06
 6.556020e-06
 5.784190e-06
 5.097708e-06
 4.522154e-06
 4.071764e-06
 3.750388e-06
 3.552985e-06
 3.466642e-06
 3.471165e-06
 3.540041e-06
 3.642495e-06
 3.746651e-06
 3.823138e-06
 3.848231e-06
 3.805843e-06
 3.688111e-06
 3.494885e-06
 3.232792e-06
 2.914532e-06
 2.558656e-06
 2.189895e-06
 1.842339e-06
 1.582549e-06
 1.660878e-06
 4.894600e-06
 3.571371e-05
 0.000000e+00
 0.000000e+00
 1.728830e-05
 1.172205e-05
 1.028664e-05
 9.851776e-06
 9.786629e-06
 9.857871e-06
 9.978513e-06
 1.011577e-05
 1.025615e-05
 1.039199e-05
 1.051612e-05
 1.061958e-05
 1.069086e-05
 1.071580e-05
 1.067839e-05
 1.056237e-05
 1.035354e-05
 1.004235e-05
 9.626307e-06
 9.111626e-06
 8.513725e-06
 7.856319e-06
 7.169144e-06
 6.484639e-06
 5.834191e-06
 5.244721e-06
 4.736299e-06
 4.321085e-06
 4.003370e-06
 3.780179e-06
 3.642012e-06
 3.573651e-06
 3.555279e-06
 3.564150e-06
 3.576782e-06
 3.571341e-06
 3.529786e-06
 3.439397e-06
 3.293577e-06
 3.092105e-06
 2.841248e-06
 2.554203e-06
 2.252293e-06
 1.967133e-06
 1.743424e-06
 1.640030e-06
 1.729330e-06
 2.874878e-06
 -6.881595e-05
 0.000000e+00
 0.000000e+00
 1.142604e-05
 9.706032e-06
 9.074371e-06
 8.968777e-06
 9.073388e-06
 9.244213e-06
 9.425049e-06
 9.596005e-06
 9.750248e-06
 9.884343e-06
 9.994437e-06
 1.007486e-05
 1.011780e-05
 1.011360e-05
 1.005157e-05
 9.921224e-06
 9.713917e-06
 9.424567e-06
 9.053175e-06
 8.605825e-06
 8.094897e-06
 7.538373e-06
 6.958269e-06
 6.378427e-06
 5.822034e-06
 5.309335e-06
 4.855907e-06
 4.471696e-06
 4.160740e-06
 3.921388e-06
 3.746793e-06
 3.625643e-06
 3.543143e-06
 3.482329e-06
 3.425636e-06
 3.356568e-06
 3.261213e-06
 3.129450e-06
 2.955765e-06
 2.739844e-06
 2.487216e-06
 2.210430e-06
 1.931388e-06
 1.685478e-06
 1.525920e-06
 1.508860e-06
 1.514817e-06
 -8.284818e-07
 6.901436e-07
 0.000000e+00
 0.000000e+00
 6.167172e-06
 6.652783e-06
 7.377548e-06
 7.904833e-06
 8.307242e-06
 8.625839e-06
 8.883297e-06
 9.093380e-06
 9.264367e-06
 9.400365e-06
 9.502058e-06
 9.567296e-06
 9.591686e-06
 9.569269e-06
 9.493371e-06
 9.357634e-06
 9.157196e-06
 8.889859e-06
 8.557077e-06
 8.164560e-06
 7.722356e-06
 7.244317e-06
 6.747018e-06
 6.248257e-06
 5.765384e-06
 5.313718e-06
 4.905301e-06
 4.548094e-06
 4.245638e-06
 3.997086e-06
 3.797541e-06
 3.638614e-06
 3.509220e-06
 3.396567e-06
 3.287307e-06
 3.168722e-06
 3.029826e-06
 2.862288e-06
 2.661149e-06
 2.425428e-06
 2.158849e-06
 1.871106e-06
 1.580545e-06
 1.320339e-06
 1.154177e-06
 1.223139e-06
 1.934648e-06
 7.180859e-06
 1.206213e-06
 0.000000e+00
 0.000000e+00
 -2.259882e-07
 3.892732e-06
 5.873961e-06
 6.959622e-06
 7.622179e-06
 8.067274e-06
 8.388052e-06
 8.629170e-06
 8.812905e-06
 8.950219e-06
 9.045757e-06
 9.100316e-06
 9.112254e-06
 9.078466e-06
 8.995256e-06
 8.859195e-06
 8.667995e-06
 8.421322e-06
 8.121451e-06
 7.773635e-06
 7.386115e-06
 6.969730e-06
 6.537151e-06
 6.101854e-06
 5.676965e-06
 5.274158e-06
 4.902736e-06
 4.569005e-06
 4.275947e-06
 4.023190e-06
 3.807213e-06
 3.621765e-06
 3.458461e-06
 3.307521e-06
 3.158598e-06
 3.001635e-06
 2.827646e-06
 2.629390e-06
 2.401885e-06
 2.142830e-06
 1.853003e-06
 1.536858e-06
 1.203794e-06
 8.716329e-07
 5.783500e-07
 4.265757e-07
 7.466505e-07
 3.257475e-06
 -8.661385e-05
 0.000000e+00
 0.000000e+00
 -2.538798e-06
 2.909697e-06
 5.173574e-06
 6.398016e-06
 7.138118e-06
 7.625863e-06
 7.969099e-06
 8.220602e-06
 8.406874e-06
 8.541235e-06
 8.630037e-06
 8.675718e-06
 8.678447e-06
 8.637130e-06
 8.550184e-06
 8.416225e-06
 8.234707e-06
 8.006491e-06
 7.734280e-06
 7.422856e-06
 7.079053e-06
 6.711473e-06
 6.329942e-06
 5.944793e-06
 5.566063e-06
 5.202705e-06
 4.861920e-06
 4.548676e-06
 4.265427e-06
 4.012055e-06
 3.785996e-06
 3.582537e-06
 3.395245e-06
 3.216505e-06
 3.038112e-06
 2.851867e-06
 2.650116e-06
 2.426186e-06
 2.174681e-06
 1.891603e-06
 1.574252e-06
 1.220768e-06
 8.288351e-07
 3.921741e-07
 -1.095279e-07
 -7.400815e-07
 -1.680015e-06
 -9.856390e-07
 -3.595675e-05
 0.000000e+00
 0.000000e+00
 2.211048e-06
 4.085608e-06
 5.382451e-06
 6.277022e-06
 6.888378e-06
 7.320699e-06
 7.637882e-06
 7.875242e-06
 8.051670e-06
 8.177197e-06
 8.257073e-06
 8.293869e-06
 8.288607e-06
 8.241456e-06
 8.152267e-06
 8.021054e-06
 7.848430e-06
 7.636007e-06
 7.386674e-06
 7.104757e-06
 6.795979e-06
 6.467254e-06
 6.126300e-06
 5.781131e-06
 5.439493e-06
 5.108299e-06
 4.793139e-06
 4.497916e-06
 4.224616e-06
 3.973244e-06
 3.741891e-06
 3.526943e-06
 3.323378e-06
 3.125145e-06
 2.925573e-06
 2.717773e-06
 2.494980e-06
 2.250796e-06
 1.979277e-06
 1.674806e-06
 1.331610e-06
 9.426117e-07
 4.967159e-07
 -2.820653e-08
 -6.863112e-07
 -1.637087e-06
 -3.440102e-06
 -9.637248e-06
 -7.267265e-05
 0.000000e+00
 0.000000e+00
 7.351770e-06
 5.716954e-06
 6.011675e-06
 6.432831e-06
 6.810376e-06
 7.125999e-06
 7.383895e-06
 7.589434e-06
 7.746621e-06
 7.858387e-06
 7.926941e-06
 7.953940e-06
 7.940603e-06
 7.887846e-06
 7.796478e-06
 7.667460e-06
 7.502172e-06
 7.302674e-06
 7.071892e-06
 6.813720e-06
 6.532990e-06
 6.235317e-06
 5.926826e-06
 5.613797e-06
 5.302256e-06
 4.997572e-06
 4.704099e-06
 4.424898e-06
 4.161558e-06
 3.914125e-06
 3.681145e-06
 3.459793e-06
 3.246075e-06
 3.035088e-06
 2.821286e-06
 2.598738e-06
 2.361318e-06
 2.102803e-06
 1.816815e-06
 1.496553e-06
 1.134199e-06
 7.198092e-07
 2.393345e-07
 -3.287307e-07
 -1.018165e-06
 -1.877641e-06
 -2.957481e-06
 -4.884695e-06
 6.744831e-05
 0.000000e+00
 0.000000e+00
 6.140428e-06
 6.676067e-06
 6.604676e-06
 6.647149e-06
 6.796228e-06
 6.988900e-06
 7.182002e-06
 7.351803e-06
 7.486879e-06
 7.582701e-06
 7.638289e-06
 7.654295e-06
 7.632002e-06
 7.572870e-06
 7.478410e-06
 7.350250e-06
 7.190273e-06
 7.000789e-06
 6.784660e-06
 6.545377e-06
 6.287032e-06
 6.014222e-06
 5.731848e-06
 5.444865e-06
 5.157990e-06
 4.875415e-06
 4.600539e-06
 4.335761e-06
 4.082337e-06
 3.840322e-06
 3.608577e-06
 3.384856e-06
 3.165936e-06
 2.947782e-06
 2.725716e-06
 2.494562e-06
 2.248732e-06
 1.982221e-06
 1.688471e-06
 1.360060e-06
 9.881787e-07
 5.619008e-07
 6.749501e-08
 -5.107745e-07
 -1.181268e-06
 -1.891425e-06
 -2.228513e-06
 2.073279e-06
 -1.872676e-05
 0.000000e+00
 0.000000e+00
 9.142536e-06
 7.743452e-06
 7.026646e-06
 6.754134e-06
 6.742812e-06
 6.854655e-06
 7.005390e-06
 7.149989e-06
 7.266942e-06
 7.347497e-06
 7.389308e-06
 7.392970e-06
 7.360245e-06
 7.293237e-06
 7.194086e-06
 7.064927e-06
 6.907977e-06
 6.725654e-06
 6.520688e-06
 6.296178e-06
 6.055593e-06
 5.802702e-06
 5.541441e-06
 5.275734e-06
 5.009291e-06
 4.745390e-06
 4.486689e-06
 4.235066e-06
 3.991509e-06
 3.756062e-06
 3.527820e-06
 3.304982e-06
 3.084924e-06
 2.864307e-06
 2.639169e-06
 2.404997e-06
 2.156739e-06
 1.888740e-06
 1.594565e-06
 1.266687e-06
 8.960632e-07
 4.716310e-07
 -2.003758e-08
 -5.945017e-07
 -1.268599e-06
 -2.068639e-06
 -3.160004e-06
 -7.830091e-06
 -3.685169e-05
 0.000000e+00
 0.000000e+00
 1.186560e-05
 8.176734e-06
 7.003744e-06
 6.608952e-06
 6.575792e-06
 6.688001e-06
 6.838672e-06
 6.977821e-06
 7.084395e-06
 7.151482e-06
 7.178645e-06
 7.168076e-06
 7.122770e-06
 7.045744e-06
 6.939782e-06
 6.807430e-06
 6.651106e-06
 6.473227e-06
 6.276323e-06
 6.063106e-06
 5.836490e-06
 5.599551e-06
 5.355443e-06
 5.107270e-06
 4.857944e-06
 4.610033e-06
 4.365610e-06
 4.126146e-06
 3.892413e-06
 3.664445e-06
 3.441525e-06
 3.222207e-06
 3.004368e-06
 2.785262e-06
 2.561569e-06
 2.329419e-06
 2.084360e-06
 1.821259e-06
 1.534109e-06
 1.215723e-06
 8.573458e-07
 4.482089e-07
 -2.494091e-08
 -5.788201e-07
 -1.238394e-06
 -2.059755e-06
 -3.205466e-06
 -4.991342e-06
 6.761127e-05
 0.000000e+00
 0.000000e+00
 1.015609e-05
 7.167074e-06
 6.256609e-06
 6.134461e-06
 6.280450e-06
 6.491733e-06
 6.687955e-06
 6.840398e-06
 6.942314e-06
 6.995778e-06
 7.005821e-06
 6.977907e-06
 6.916969e-06
 6.827146e-06
 6.711844e-06
 6.573905e-06
 6.415809e-06
 6.239856e-06
 6.048305e-06
 5.843462e-06
 5.627724e-06
 5.403563e-06
 5.173476e-06
 4.939899e-06
 4.705102e-06
 4.471084e-06
 4.239458e-06
 4.011369e-06
 3.787426e-06
 3.567659e-06
 3.351512e-06
 3.137849e-06
 2.924985e-06
 2.710714e-06
 2.492333e-06
 2.266639e-06
 2.029878e-06
 1.777635e-06
 1.504628e-06
 1.204413e-06
 8.689792e-07
 4.882871e-07
 4.988116e-08
 -4.611641e-07
 -1.061641e-06
 -1.768320e-06
 -2.581582e-06
 -4.604881e-06
 -1.783553e-06
 0.000000e+00
 0.000000e+00
 5.710356e-06
 4.306207e-06
 4.845908e-06
 5.435532e-06
 5.937599e-06
 6.318173e-06
 6.584278e-06
 6.754792e-06
 6.849094e-06
 6.883529e-06
 6.870846e-06
 6.820625e-06
 6.739927e-06
 6.633934e-06
 6.506484e-06
 6.360508e-06
 6.198365e-06
 6.022095e-06
 5.833594e-06
 5.634727e-06
 5.427386e-06
 5.213492e-06
 4.994973e-06
 4.773700e-06
 4.551419e-06
 4.329663e-06
 4.109677e-06
 3.892351e-06
 3.678164e-06
 3.467158e-06
 3.258924e-06
 3.052607e-06
 2.846926e-06
 2.640192e-06
 2.430319e-06
 2.214817e-06
 1.990739e-06
 1.754583e-06
 1.502097e-06
 1.227984e-06
 9.254591e-07
 5.856481e-07
 1.970087e-07
 -2.541769e-07
 -7.779271e-07
 -1.356849e-06
 -1.905307e-06
 -3.954460e-06
 6.864563e-05
 0.000000e+00
 0.000000e+00
 -4.853440e-06
 1.104635e-06
 3.419657e-06
 4.839973e-06
 5.722152e-06
 6.260594e-06
 6.576082e-06
 6.744820e-06
 6.815119e-06
 6.817863e-06
 6.772992e-06
 6.693508e-06
 6.587960e-06
 6.462030e-06
 6.319557e-06
 6.163226e-06
 5.995026e-06
 5.816560e-06
 5.629253e-06
 5.434475e-06
 5.233601e-06
 5.028038e-06
 4.819201e-06
 4.608476e-06
 4.397162e-06
 4.186412e-06
 3.977170e-06
 3.770119e-06
 3.565644e-06
 3.363810e-06
 3.164346e-06
 2.966661e-06
 2.769856e-06
 2.572743e-06
 2.373861e-06
 2.171478e-06
 1.963558e-06
 1.747691e-06
 1.520948e-06
 1.279620e-06
 1.018763e-06
 7.313649e-07
 4.068605e-07
 2.883364e-08
 -4.256421e-07
 -9.646524e-07
 -1.403295e-06
 -2.502030e-07
 3.413827e-05
 0.000000e+00
 0.000000e+00
 -4.728885e-06
 -5.527716e-07
 2.820054e-06
 4.761888e-06
 5.838993e-06
 6.418808e-06
 6.710154e-06
 6.830489e-06
 6.846944e-06
 6.798695e-06
 6.709034e-06
 6.591990e-06
 6.456077e-06
 6.306481e-06
 6.146377e-06
 5.977753e-06
 5.801924e-06
 5.619859e-06
 5.432388e-06
 5.240322e-06
 5.044509e-06
 4.845853e-06
 4.645304e-06
 4.443815e-06
 4.242307e-06
 4.041610e-06
 3.842420e-06
 3.645256e-06
 3.450431e-06
 3.258036e-06
 3.067937e-06
 2.879788e-06
 2.693049e-06
 2.507018e-06
 2.320857e-06
 2.133615e-06
 1.944239e-06
 1.751551e-06
 1.554188e-06
 1.350461e-06
 1.138042e-06
 9.132160e-07
 6.688391e-07
 3.883373e-07
 2.723660e-08
 -5.441161e-07
 -1.717443e-06
 -6.193381e-06
 1.629120e-05
 0.000000e+00
 0.000000e+00
 -9.523383e-06
 -1.306268e-07
 3.641026e-06
 5.507903e-06
 6.427226e-06
 6.851094e-06
 7.007352e-06
 7.015650e-06
 6.940965e-06
 6.819471e-06
 6.671580e-06
 6.508810e-06
 6.337557e-06
 6.161249e-06
 5.981610e-06
 5.799432e-06
 5.615037e-06
 5.428561e-06
 5.240126e-06
 5.049926e-06
 4.858265e-06
 4.665565e-06
 4.472339e-06
 4.279160e-06
 4.086618e-06
 3.895271e-06
 3.705609e-06
 3.518016e-06
 3.332749e-06
 3.149930e-06
 2.969548e-06
 2.791477e-06
 2.615512e-06
 2.441404e-06
 2.268915e-06
 2.097868e-06
 1.928204e-06
 1.760035e-06
 1.593695e-06
 1.429789e-06
 1.269247e-06
 1.113324e-06
 9.631667e-07
 8.169363e-07
 6.549793e-07
 3.693804e-07
 -5.664514e-07
 -7.841075e-06
 8.636727e-05
 0.000000e+00
 0.000000e+00
 -1.939402e-06
 3.947432e-06
 6.186485e-06
 7.128701e-06
 7.477170e-06
 7.534484e-06
 7.444086e-06
 7.279315e-06
 7.079326e-06
 6.865241e-06
 6.648193e-06
 6.433640e-06
 6.223823e-06
 6.019198e-06
 5.819310e-06
 5.623301e-06
 5.430229e-06
 5.239237e-06
 5.049650e-06
 4.861010e-06
 4.673078e-06
 4.485812e-06
 4.299329e-06
 4.113864e-06
 3.929721e-06
 3.747230e-06
 3.566708e-06
 3.388426e-06
 3.212597e-06
 3.039368e-06
 2.868832e-06
 2.701055e-06
 2.536119e-06
 2.374183e-06
 2.215551e-06
 2.060766e-06
 1.910711e-06
 1.766737e-06
 1.630823e-06
 1.505814e-06
 1.395860e-06
 1.307394e-06
 1.251649e-06
 1.251394e-06
 1.359492e-06
 1.711790e-06
 2.693515e-06
 3.845834e-06
 1.237648e-04
 0.000000e+00
 0.000000e+00
 1.240653e-05
 1.068694e-05
 9.877540e-06
 9.286691e-06
 8.795234e-06
 8.355127e-06
 7.949961e-06
 7.575394e-06
 7.230210e-06
 6.913077e-06
 6.621799e-06
 6.353455e-06
 6.104751e-06
 5.872352e-06
 5.653118e-06
 5.444250e-06
 5.243371e-06
 5.048544e-06
 4.858263e-06
 4.671420e-06
 4.487253e-06
 4.305295e-06
 4.125313e-06
 3.947249e-06
 3.771170e-06
 3.597214e-06
 3.425555e-06
 3.256372e-06
 3.089836e-06
 2.926109e-06
 2.765359e-06
 2.607802e-06
 2.453752e-06
 2.303696e-06
 2.158397e-06
 2.019010e-06