<VTKFile type="UnstructuredGrid"  version="0.1"   >
<UnstructuredGrid>  
<Piece  NumberOfPoints="     2601"  NumberOfCells="     5000">  
<Points>  
<DataArray  type="Float64"  NumberOfComponents="3"  format="ascii">  
 0.000000 0.000000 0.000000 
 0.020000 0.000000 0.000000 
 0.040000 0.000000 0.000000 
 0.060000 0.000000 0.000000 
 0.080000 0.000000 0.000000 
 0.100000 0.000000 0.000000 
 0.120000 0.000000 0.000000 
 0.140000 0.000000 0.000000 
 0.160000 0.000000 0.000000 
 0.180000 0.000000 0.000000 
 0.200000 0.000000 0.000000 
 0.220000 0.000000 0.000000 
 0.240000 0.000000 0.000000 
 0.260000 0.000000 0.000000 
 0.280000 0.000000 0.000000 
 0.300000 0.000000 0.000000 
 0.320000 0.000000 0.000000 
 0.340000 0.000000 0.000000 
 0.360000 0.000000 0.000000 
 0.380000 0.000000 0.000000 
 0.400000 0.000000 0.000000 
 0.420000 0.000000 0.000000 
 0.440000 0.000000 0.000000 
 0.460000 0.000000 0.000000 
 0.480000 0.000000 0.000000 
 0.500000 0.000000 0.000000 
 0.520000 0.000000 0.000000 
 0.540000 0.000000 0.000000 
 0.560000 0.000000 0.000000 
 0.580000 0.000000 0.000000 
 0.600000 0.000000 0.000000 
 0.620000 0.000000 0.000000 
 0.640000 0.000000 0.000000 
 0.660000 0.000000 0.000000 
 0.680000 0.000000 0.000000 
 0.700000 0.000000 0.000000 
 0.720000 0.000000 0.000000 
 0.740000 0.000000 0.000000 
 0.760000 0.000000 0.000000 
 0.780000 0.000000 0.000000 
 0.800000 0.000000 0.000000 
 0.820000 0.000000 0.000000 
 0.840000 0.000000 0.000000 
 0.860000 0.000000 0.000000 
 0.880000 0.000000 0.000000 
 0.900000 0.000000 0.000000 
 0.920000 0.000000 0.000000 
 0.940000 0.000000 0.000000 
 0.960000 0.000000 0.000000 
 0.980000 0.000000 0.000000 
 1.000000 0.000000 0.000000 
 0.000000 0.020000 0.000000 
 0.020000 0.020000 0.000000 
 0.040000 0.020000 0.000000 
 0.060000 0.020000 0.000000 
 0.080000 0.020000 0.000000 
 0.100000 0.020000 0.000000 
 0.120000 0.020000 0.000000 
 0.140000 0.020000 0.000000 
 0.160000 0.020000 0.000000 
 0.180000 0.020000 0.000000 
 0.200000 0.020000 0.000000 
 0.220000 0.020000 0.000000 
 0.240000 0.020000 0.000000 
 0.260000 0.020000 0.000000 
 0.280000 0.020000 0.000000 
 0.300000 0.020000 0.000000 
 0.320000 0.020000 0.000000 
 0.340000 0.020000 0.000000 
 0.360000 0.020000 0.000000 
 0.380000 0.020000 0.000000 
 0.400000 0.020000 0.000000 
 0.420000 0.020000 0.000000 
 0.440000 0.020000 0.000000 
 0.460000 0.020000 0.000000 
 0.480000 0.020000 0.000000 
 0.500000 0.020000 0.000000 
 0.520000 0.020000 0.000000 
 0.540000 0.020000 0.000000 
 0.560000 0.020000 0.000000 
 0.580000 0.020000 0.000000 
 0.600000 0.020000 0.000000 
 0.620000 0.020000 0.000000 
 0.640000 0.020000 0.000000 
 0.660000 0.020000 0.000000 
 0.680000 0.020000 0.000000 
 0.700000 0.020000 0.000000 
 0.720000 0.020000 0.000000 
 0.740000 0.020000 0.000000 
 0.760000 0.020000 0.000000 
 0.780000 0.020000 0.000000 
 0.800000 0.020000 0.000000 
 0.820000 0.020000 0.000000 
 0.840000 0.020000 0.000000 
 0.860000 0.020000 0.000000 
 0.880000 0.020000 0.000000 
 0.900000 0.020000 0.000000 
 0.920000 0.020000 0.000000 
 0.940000 0.020000 0.000000 
 0.960000 0.020000 0.000000 
 0.980000 0.020000 0.000000 
 1.000000 0.020000 0.000000 
 0.000000 0.040000 0.000000 
 0.020000 0.040000 0.000000 
 0.040000 0.040000 0.000000 
 0.060000 0.040000 0.000000 
 0.080000 0.040000 0.000000 
 0.100000 0.040000 0.000000 
 0.120000 0.040000 0.000000 
 0.140000 0.040000 0.000000 
 0.160000 0.040000 0.000000 
 0.180000 0.040000 0.000000 
 0.200000 0.040000 0.000000 
 0.220000 0.040000 0.000000 
 0.240000 0.040000 0.000000 
 0.260000 0.040000 0.000000 
 0.280000 0.040000 0.000000 
 0.300000 0.040000 0.000000 
 0.320000 0.040000 0.000000 
 0.340000 0.040000 0.000000 
 0.360000 0.040000 0.000000 
 0.380000 0.040000 0.000000 
 0.400000 0.040000 0.000000 
 0.420000 0.040000 0.000000 
 0.440000 0.040000 0.000000 
 0.460000 0.040000 0.000000 
 0.480000 0.040000 0.000000 
 0.500000 0.040000 0.000000 
 0.520000 0.040000 0.000000 
 0.540000 0.040000 0.000000 
 0.560000 0.040000 0.000000 
 0.580000 0.040000 0.000000 
 0.600000 0.040000 0.000000 
 0.620000 0.040000 0.000000 
 0.640000 0.040000 0.000000 
 0.660000 0.040000 0.000000 
 0.680000 0.040000 0.000000 
 0.700000 0.040000 0.000000 
 0.720000 0.040000 0.000000 
 0.740000 0.040000 0.000000 
 0.760000 0.040000 0.000000 
 0.780000 0.040000 0.000000 
 0.800000 0.040000 0.000000 
 0.820000 0.040000 0.000000 
 0.840000 0.040000 0.000000 
 0.860000 0.040000 0.000000 
 0.880000 0.040000 0.000000 
 0.900000 0.040000 0.000000 
 0.920000 0.040000 0.000000 
 0.940000 0.040000 0.000000 
 0.960000 0.040000 0.000000 
 0.980000 0.040000 0.000000 
 1.000000 0.040000 0.000000 
 0.000000 0.060000 0.000000 
 0.020000 0.060000 0.000000 
 0.040000 0.060000 0.000000 
 0.060000 0.060000 0.000000 
 0.080000 0.060000 0.000000 
 0.100000 0.060000 0.000000 
 0.120000 0.060000 0.000000 
 0.140000 0.060000 0.000000 
 0.160000 0.060000 0.000000 
 0.180000 0.060000 0.000000 
 0.200000 0.060000 0.000000 
 0.220000 0.060000 0.000000 
 0.240000 0.060000 0.000000 
 0.260000 0.060000 0.000000 
 0.280000 0.060000 0.000000 
 0.300000 0.060000 0.000000 
 0.320000 0.060000 0.000000 
 0.340000 0.060000 0.000000 
 0.360000 0.060000 0.000000 
 0.380000 0.060000 0.000000 
 0.400000 0.060000 0.000000 
 0.420000 0.060000 0.000000 
 0.440000 0.060000 0.000000 
 0.460000 0.060000 0.000000 
 0.480000 0.060000 0.000000 
 0.500000 0.060000 0.000000 
 0.520000 0.060000 0.000000 
 0.540000 0.060000 0.000000 
 0.560000 0.060000 0.000000 
 0.580000 0.060000 0.000000 
 0.600000 0.060000 0.000000 
 0.620000 0.060000 0.000000 
 0.640000 0.060000 0.000000 
 0.660000 0.060000 0.000000 
 0.680000 0.060000 0.000000 
 0.700000 0.060000 0.000000 
 0.720000 0.060000 0.000000 
 0.740000 0.060000 0.000000 
 0.760000 0.060000 0.000000 
 0.780000 0.060000 0.000000 
 0.800000 0.060000 0.000000 
 0.820000 0.060000 0.000000 
 0.840000 0.060000 0.000000 
 0.860000 0.060000 0.000000 
 0.880000 0.060000 0.000000 
 0.900000 0.060000 0.000000 
 0.920000 0.060000 0.000000 
 0.940000 0.060000 0.000000 
 0.960000 0.060000 0.000000 
 0.980000 0.060000 0.000000 
 1.000000 0.060000 0.000000 
 0.000000 0.080000 0.000000 
 0.020000 0.080000 0.000000 
 0.040000 0.080000 0.000000 
 0.060000 0.080000 0.000000 
 0.080000 0.080000 0.000000 
 0.100000 0.080000 0.000000 
 0.120000 0.080000 0.000000 
 0.140000 0.080000 0.000000 
 0.160000 0.080000 0.000000 
 0.180000 0.080000 0.000000 
 0.200000 0.080000 0.000000 
 0.220000 0.080000 0.000000 
 0.240000 0.080000 0.000000 
 0.260000 0.080000 0.000000 
 0.280000 0.080000 0.000000 
 0.300000 0.080000 0.000000 
 0.320000 0.080000 0.000000 
 0.340000 0.080000 0.000000 
 0.360000 0.080000 0.000000 
 0.380000 0.080000 0.000000 
 0.400000 0.080000 0.000000 
 0.420000 0.080000 0.000000 
 0.440000 0.080000 0.000000 
 0.460000 0.080000 0.000000 
 0.480000 0.080000 0.000000 
 0.500000 0.080000 0.000000 
 0.520000 0.080000 0.000000 
 0.540000 0.080000 0.000000 
 0.560000 0.080000 0.000000 
 0.580000 0.080000 0.000000 
 0.600000 0.080000 0.000000 
 0.620000 0.080000 0.000000 
 0.640000 0.080000 0.000000 
 0.660000 0.080000 0.000000 
 0.680000 0.080000 0.000000 
 0.700000 0.080000 0.000000 
 0.720000 0.080000 0.000000 
 0.740000 0.080000 0.000000 
 0.760000 0.080000 0.000000 
 0.780000 0.080000 0.000000 
 0.800000 0.080000 0.000000 
 0.820000 0.080000 0.000000 
 0.840000 0.080000 0.000000 
 0.860000 0.080000 0.000000 
 0.880000 0.080000 0.000000 
 0.900000 0.080000 0.000000 
 0.920000 0.080000 0.000000 
 0.940000 0.080000 0.000000 
 0.960000 0.080000 0.000000 
 0.980000 0.080000 0.000000 
 1.000000 0.080000 0.000000 
 0.000000 0.100000 0.000000 
 0.020000 0.100000 0.000000 
 0.040000 0.100000 0.000000 
 0.060000 0.100000 0.000000 
 0.080000 0.100000 0.000000 
 0.100000 0.100000 0.000000 
 0.120000 0.100000 0.000000 
 0.140000 0.100000 0.000000 
 0.160000 0.100000 0.000000 
 0.180000 0.100000 0.000000 
 0.200000 0.100000 0.000000 
 0.220000 0.100000 0.000000 
 0.240000 0.100000 0.000000 
 0.260000 0.100000 0.000000 
 0.280000 0.100000 0.000000 
 0.300000 0.100000 0.000000 
 0.320000 0.100000 0.000000 
 0.340000 0.100000 0.000000 
 0.360000 0.100000 0.000000 
 0.380000 0.100000 0.000000 
 0.400000 0.100000 0.000000 
 0.420000 0.100000 0.000000 
 0.440000 0.100000 0.000000 
 0.460000 0.100000 0.000000 
 0.480000 0.100000 0.000000 
 0.500000 0.100000 0.000000 
 0.520000 0.100000 0.000000 
 0.540000 0.100000 0.000000 
 0.560000 0.100000 0.000000 
 0.580000 0.100000 0.000000 
 0.600000 0.100000 0.000000 
 0.620000 0.100000 0.000000 
 0.640000 0.100000 0.000000 
 0.660000 0.100000 0.000000 
 0.680000 0.100000 0.000000 
 0.700000 0.100000 0.000000 
 0.720000 0.100000 0.000000 
 0.740000 0.100000 0.000000 
 0.760000 0.100000 0.000000 
 0.780000 0.100000 0.000000 
 0.800000 0.100000 0.000000 
 0.820000 0.100000 0.000000 
 0.840000 0.100000 0.000000 
 0.860000 0.100000 0.000000 
 0.880000 0.100000 0.000000 
 0.900000 0.100000 0.000000 
 0.920000 0.100000 0.000000 
 0.940000 0.100000 0.000000 
 0.960000 0.100000 0.000000 
 0.980000 0.100000 0.000000 
 1.000000 0.100000 0.000000 
 0.000000 0.120000 0.000000 
 0.020000 0.120000 0.000000 
 0.040000 0.120000 0.000000 
 0.060000 0.120000 0.000000 
 0.080000 0.120000 0.000000 
 0.100000 0.120000 0.000000 
 0.120000 0.120000 0.000000 
 0.140000 0.120000 0.000000 
 0.160000 0.120000 0.000000 
 0.180000 0.120000 0.000000 
 0.200000 0.120000 0.000000 
 0.220000 0.120000 0.000000 
 0.240000 0.120000 0.000000 
 0.260000 0.120000 0.000000 
 0.280000 0.120000 0.000000 
 0.300000 0.120000 0.000000 
 0.320000 0.120000 0.000000 
 0.340000 0.120000 0.000000 
 0.360000 0.120000 0.000000 
 0.380000 0.120000 0.000000 
 0.400000 0.120000 0.000000 
 0.420000 0.120000 0.000000 
 0.440000 0.120000 0.000000 
 0.460000 0.120000 0.000000 
 0.480000 0.120000 0.000000 
 0.500000 0.120000 0.000000 
 0.520000 0.120000 0.000000 
 0.540000 0.120000 0.000000 
 0.560000 0.120000 0.000000 
 0.580000 0.120000 0.000000 
 0.600000 0.120000 0.000000 
[...]
<PointData  Scalars="U"> 
<DataArray  type="Float64"  Name="U"  format="ascii"> 
 0.000000e+00
 0.000000e+00
 0.000000e+00
 0.000000e+00
 0.000000e+00
 0.000000e+00
 0.000000e+00
 0.000000e+00
 0.000000e+00
 0.000000e+00
 0.000000e+00
 0.000000e+00
 0.000000e+00
 0.000000e+00
 0.000000e+00
 0.000000e+00
 0.000000e+00
 0.000000e+00
 0.000000e+00
 0.000000e+00
 0.000000e+00
 0.000000e+00
 0.000000e+00
 0.000000e+00
 0.000000e+00
 0.000000e+00
 0.000000e+00
 0.000000e+00
 0.000000e+00
 0.000000e+00
 0.000000e+00
 0.000000e+00
 0.000000e+00
 0.000000e+00
 0.000000e+00
 0.000000e+00
 0.000000e+00
 0.000000e+00
 0.000000e+00
 0.000000e+00
 0.000000e+00
 0.000000e+00
 0.000000e+00
 0.000000e+00
 0.000000e+00
 0.000000e+00
 0.000000e+00
 0.000000e+00
 0.000000e+00
 0.000000e+00
 0.000000e+00
 0.000000e+00
 1.194140e-05
 2.169049e-05
 1.710166e-05
 1.108389e-05
 1.093837e-05
 7.261426e-06
 3.078997e-06
 1.009291e-05
 1.631226e-05
 1.415045e-05
 1.774377e-05
 1.616664e-05
 1.470034e-05
 1.108670e-05
 1.872322e-05
 2.393083e-05
 2.714461e-05
 2.791546e-05
 3.079481e-05
 3.141197e-05
 1.994704e-05
 1.803285e-05
 1.792360e-05
 -4.010759e-07
 -2.049850e-05
 -1.945650e-05
 -1.038048e-05
 -3.960816e-06
 -5.836664e-06
 -1.598973e-05
 -2.136185e-05
 -1.707932e-05
 -4.064054e-06
 -7.991852e-07
 -1.262459e-06
 -5.632489e-07
 1.397063e-05
 1.212218e-05
 7.500905e-06
 1.490984e-05
 1.618017e-05
 1.737379e-05
 1.752182e-05
 1.372326e-05
 4.364802e-06
 8.880631e-07
 1.848179e-06
 1.853999e-06
 8.288000e-05
 0.000000e+00
 0.000000e+00
 5.004008e-06
 1.288333e-05
 1.360030e-05
 1.198456e-05
 1.047913e-05
 8.985031e-06
 8.573127e-06
 1.055174e-05
 1.267967e-05
 1.383469e-05
 1.459986e-05
 1.470627e-05
 1.429803e-05
 1.476163e-05
 1.719527e-05
 2.001829e-05
 2.204350e-05
 2.314815e-05
 2.358215e-05
 2.194303e-05
 1.808438e-05
 1.438104e-05
 9.399299e-06
 9.666536e-07
 -6.821155e-06
 -9.221794e-06
 -7.739049e-06
 -6.262286e-06
 -7.392891e-06
 -1.026393e-05
 -1.171852e-05
 -9.489548e-06
 -5.206105e-06
 -1.953083e-06
 7.449511e-09
 2.957180e-06
 6.899484e-06
 8.455184e-06
 9.170507e-06
 1.091946e-05
 1.229089e-05
 1.271917e-05
 1.200024e-05
 9.494741e-06
 6.106144e-06
 4.098096e-06
 4.577478e-06
 9.420660e-06
 1.740469e-06
 0.000000e+00
 0.000000e+00
 9.287744e-06
 1.277313e-05
 1.289733e-05
 1.199096e-05
 1.097003e-05
 1.023441e-05
 1.018753e-05
 1.099393e-05
 1.209750e-05
 1.300471e-05
 1.363482e-05
 1.399716e-05
 1.429968e-05
 1.500511e-05
 1.633567e-05
 1.786075e-05
 1.904090e-05
 1.958846e-05
 1.929779e-05
 1.782537e-05
 1.520545e-05
 1.184443e-05
 7.600904e-06
 2.520981e-06
 -1.985124e-06
 -4.464775e-06
 -5.145863e-06
 -5.357218e-06
 -6.082820e-06
 -7.100613e-06
 -7.356864e-06
 -6.145257e-06
 -3.911374e-06
 -1.592767e-06
 5.386592e-07
 2.816335e-06
 5.090016e-06
 6.722364e-06
 7.883999e-06
 8.950883e-06
 9.702349e-06
 9.832079e-06
 9.157756e-06
 7.668349e-06
 5.858490e-06
 4.578694e-06
 4.455592e-06
 7.438702e-06
 -3.237983e-05
 0.000000e+00
 0.000000e+00
 2.146248e-05
 1.507979e-05
 1.313631e-05
 1.199616e-05
 1.121110e-05
 1.077241e-05
 1.076480e-05
 1.117641e-05
 1.180820e-05
 1.244116e-05
 1.297386e-05
 1.341195e-05
 1.386048e-05
 1.447064e-05
 1.527791e-05
 1.610679e-05
 1.669171e-05
 1.680711e-05
 1.627595e-05
 1.496975e-05
 1.290081e-05
 1.019525e-05
 6.973515e-06
 3.522246e-06
 4.492344e-07
 -1.706733e-06
 -2.946468e-06
 -3.696412e-06
 -4.316431e-06
 -4.765156e-06
 -4.709361e-06
 -3.923660e-06
 -2.545372e-06
 -9.031857e-07
 8.046213e-07
 2.529716e-06
 4.152869e-06
 5.494026e-06
 6.531528e-06
 7.310173e-06
 7.760802e-06
 7.759537e-06
 7.234385e-06
 6.241478e-06
 5.016344e-06
 3.857368e-06
 2.795734e-06
 8.399439e-07
 -5.135178e-05
 0.000000e+00
 0.000000e+00
 2.220431e-05
 1.518903e-05
 1.279591e-05
 1.169636e-05
 1.112097e-05
 1.086197e-05
 1.088060e-05
 1.113789e-05
 1.154334e-05
 1.199378e-05
 1.242529e-05
 1.282867e-05
 1.323862e-05
 1.369515e-05
 1.418413e-05
 1.460827e-05
 1.482052e-05
 1.467533e-05
 1.405733e-05
 1.290183e-05
 1.121858e-05
 9.088403e-06
 6.651445e-06
 4.137110e-06
 1.854332e-06
 5.249500e-08
 -1.219957e-06
 -2.084005e-06
 -2.663106e-06
 -2.956808e-06
 -2.867482e-06
 -2.331887e-06
 -1.409978e-06
 -2.447364e-07
 1.031996e-06
 2.324854e-06
 3.538925e-06
 4.583089e-06
 5.408175e-06
 5.988734e-06
 6.281145e-06
 6.231528e-06
 5.814310e-06
 5.063419e-06
 4.069018e-06
 2.910996e-06
 1.557179e-06
 6.459651e-07
 5.146134e-08
 0.000000e+00
 0.000000e+00
 1.503026e-05
 1.227934e-05
 1.138093e-05
 1.095235e-05
 1.073741e-05
 1.067103e-05
 1.074612e-05
 1.094898e-05
 1.124143e-05
 1.157500e-05
 1.191293e-05
 1.224064e-05
 1.256020e-05
 1.287110e-05
 1.314648e-05
 1.332287e-05
 1.331204e-05
 1.302434e-05
 1.238971e-05
 1.137412e-05
 9.991066e-06
 8.304121e-06
 6.425076e-06
 4.510866e-06
 2.738819e-06
 1.249620e-06
 9.926827e-08
 -7.307654e-07
 -1.275519e-06
 -1.538731e-06
 -1.496954e-06
 -1.142059e-06
 -5.133266e-07
 3.106287e-07
 1.241506e-06
 2.197780e-06
 3.104419e-06
 3.896056e-06
 4.524234e-06
 4.952904e-06
 5.148537e-06
 5.081886e-06
 4.739329e-06
 4.128649e-06
 3.264501e-06
 2.131837e-06
 6.817267e-07
 -4.899163e-07
 -3.537438e-05
 0.000000e+00
 0.000000e+00
 5.409171e-06
 8.344893e-06
 9.563560e-06
 1.002368e-05
 1.021312e-05
 1.033627e-05
 1.047882e-05
 1.066855e-05
 1.090077e-05
 1.115602e-05
 1.141400e-05
 1.166049e-05
 1.188565e-05
 1.207569e-05
 1.220340e-05
 1.222459e-05
 1.208382e-05
 1.172636e-05
 1.111129e-05
 1.022237e-05
 9.075326e-06
 7.720094e-06
 6.238504e-06
 4.736164e-06
 3.324363e-06
 2.093882e-06
 1.095810e-06
 3.441616e-07
 -1.636787e-07
 -4.285968e-07
 -4.488445e-07
 -2.333180e-07
 1.870572e-07
 7.608167e-07
 1.426461e-06
 2.121722e-06
 2.788225e-06
 3.374767e-06
 3.839764e-06
 4.150497e-06
 4.280978e-06
 4.212320e-06
 3.934431e-06
 3.442211e-06
 2.717376e-06
 1.685874e-06
 1.207833e-07
 -3.221169e-06
 -7.896505e-07
 0.000000e+00
 0.000000e+00
 -5.085326e-07
 6.104266e-06
 8.403188e-06
 9.324485e-06
 9.737963e-06
 9.973224e-06
 1.015906e-05
 1.034325e-05
 1.053715e-05
 1.073558e-05
 1.092750e-05
 1.110107e-05
 1.124380e-05
 1.133949e-05
 1.136478e-05
 1.128838e-05
 1.107463e-05
 1.069024e-05
 1.011218e-05
 9.334584e-06
 8.373216e-06
 7.266695e-06
 6.073939e-06
 4.867314e-06
 3.721257e-06
 2.698973e-06
 1.843240e-06
 1.176159e-06
 7.061425e-07
 4.350092e-07
 3.593751e-07
 4.668667e-07
 7.324648e-07
 1.119161e-06
 1.582461e-06
 2.075620e-06
 2.553712e-06
 2.976554e-06
 3.310577e-06
 3.529461e-06
 3.614169e-06
 3.553221e-06
 3.342310e-06
 2.980178e-06
 2.455555e-06
 1.714281e-06
 5.785862e-07
 -1.507275e-06
 1.702160e-05
 0.000000e+00
 0.000000e+00
 3.143061e-06
 7.025129e-06
 8.410815e-06
 9.057561e-06
 9.412655e-06
 9.647822e-06
 9.835428e-06
 1.000569e-05
 1.016819e-05
 1.032163e-05
 1.045933e-05
 1.057187e-05
 1.064771e-05
 1.067225e-05
 1.062700e-05
 1.048990e-05
 1.023783e-05
 9.850707e-06
 9.316312e-06
 8.634475e-06
 7.819763e-06
 6.901911e-06
 5.923662e-06
 4.935905e-06
 3.990689e-06
 3.133833e-06
 2.399741e-06
 1.810190e-06
 1.376382e-06
 1.101607e-06
 9.822144e-07
 1.006826e-06
 1.155516e-06
 1.400569e-06
 1.708934e-06
 2.045402e-06
 2.375593e-06
 2.668388e-06
 2.897729e-06
 3.043864e-06
 3.094311e-06
 3.044822e-06
 2.900210e-06
 2.674691e-06
 2.392465e-06
 2.091133e-06
 1.810402e-06
 -3.687828e-08
 1.801108e-05
 0.000000e+00
 0.000000e+00
 1.276647e-05
 9.624680e-06
 9.043492e-06
 9.045386e-06
 9.193218e-06
 9.363754e-06
 9.525952e-06
 9.674207e-06
 9.807429e-06
 9.923055e-06
 1.001600e-05
 1.007889e-05
 1.010220e-05
 1.007417e-05
 9.980839e-06
 9.806887e-06
 9.537391e-06
 9.160504e-06
 8.670403e-06
 8.069845e-06
 7.371692e-06
 6.598949e-06
 5.783104e-06
 4.960851e-06
 4.169736e-06
 3.443724e-06
 2.809925e-06
 2.287216e-06
 1.886491e-06
 1.611534e-06
 1.459573e-06
 1.421355e-06
 1.481297e-06
 1.618315e-06
 1.807458e-06
 2.022022e-06
 2.235732e-06
 2.424733e-06
 2.569295e-06
 2.655331e-06
 2.675915e-06
 2.633121e-06
 2.540595e-06
 2.428009e-06
 2.351919e-06
 2.433630e-06
 3.033495e-06
 6.735397e-06
 3.676367e-05
 0.000000e+00
 0.000000e+00
 1.644892e-05
 1.060439e-05
 9.232865e-06
 8.927779e-06
 8.963188e-06
 9.091253e-06
 9.230830e-06
 9.357392e-06
 9.463820e-06
 9.546779e-06
 9.602386e-06
 9.625113e-06
 9.607657e-06
 9.541105e-06
 9.415347e-06
 9.219920e-06
 8.945362e-06
 8.584976e-06
 8.136678e-06
 7.604550e-06
 6.999671e-06
 6.339990e-06
 5.649096e-06
 4.954029e-06
 4.282480e-06
 3.659978e-06
 3.107673e-06
 2.641087e-06
 2.269755e-06
 1.997384e-06
 1.822112e-06
 1.736781e-06
 1.729342e-06
 1.783645e-06
 1.880641e-06
 1.999906e-06
 2.121275e-06
 2.226456e-06
 2.300574e-06
 2.333731e-06
 2.322784e-06
 2.273693e-06
 2.205014e-06
 2.153272e-06
 2.180580e-06
 2.380547e-06
 2.860780e-06
 4.207595e-06
 -5.051250e-05
 0.000000e+00
 0.000000e+00
 1.047606e-05
 8.965905e-06
 8.545680e-06
 8.535945e-06
 8.663661e-06
 8.815032e-06
 8.951023e-06
 9.061124e-06
 9.143517e-06
 9.197558e-06
 9.221349e-06
 9.211241e-06
 9.161998e-06
 9.067175e-06
 8.919679e-06
 8.712541e-06
 8.439941e-06
 8.098404e-06
 7.687980e-06
 7.213180e-06
 6.683423e-06
 6.112836e-06
 5.519372e-06
 4.923311e-06
 4.345418e-06
 3.805069e-06
 3.318691e-06
 2.898729e-06
 2.553135e-06
 2.285246e-06
 2.093887e-06
 1.973617e-06
 1.915155e-06
 1.906047e-06
 1.931598e-06
 1.976000e-06
 2.023577e-06
 2.060066e-06
 2.073924e-06
 2.057725e-06
 2.009840e-06
 1.936775e-06
 1.856741e-06
 1.805177e-06
 1.841070e-06
 2.037550e-06
 2.334288e-06
 6.853347e-07
 1.277728e-06
 0.000000e+00
 0.000000e+00
 4.370475e-06
 6.442358e-06
 7.491877e-06
 8.032710e-06
 8.351642e-06
 8.558245e-06
 8.698248e-06
 8.792635e-06
 8.851311e-06
 8.878281e-06
 8.873940e-06
 8.836301e-06
 8.761802e-06
 8.645931e-06
 8.483840e-06
 8.271015e-06
 8.004053e-06
 7.681475e-06
 7.304493e-06
 6.877573e-06
 6.408656e-06
 5.908960e-06
 5.392325e-06
 4.874184e-06
 4.370307e-06
 3.895509e-06
 3.462534e-06
 3.081229e-06
 2.758052e-06
 2.495861e-06
 2.293925e-06
 2.148110e-06
 2.051233e-06
 1.993603e-06
 1.963727e-06
 1.949155e-06
 1.937416e-06
 1.916986e-06
 1.878283e-06
 1.814724e-06
 1.723971e-06
 1.609638e-06
 1.484090e-06
 1.373988e-06
 1.333573e-06
 1.486076e-06
 2.208135e-06
 7.444337e-06
 1.427822e-06
 0.000000e+00
 0.000000e+00
 3.962801e-07
 5.018122e-06
 6.876957e-06
 7.726749e-06
 8.143039e-06
 8.364510e-06
 8.489437e-06
 8.558940e-06
 8.590233e-06
 8.589930e-06
 8.559570e-06
 8.498065e-06
 8.402919e-06
 8.270961e-06
 8.098916e-06
 7.883950e-06
 7.624234e-06
 7.319501e-06
 6.971538e-06
 6.584522e-06
 6.165118e-06
 5.722295e-06
 5.266839e-06
 4.810631e-06
 4.365763e-06
 3.943634e-06
 3.554133e-06
 3.204996e-06
 2.901381e-06
 2.645650e-06
 2.437330e-06
 2.273240e-06
 2.147761e-06
 2.053245e-06
 1.980545e-06
 1.919633e-06
 1.860269e-06
 1.792675e-06
 1.708192e-06
 1.599882e-06
 1.463079e-06
 1.295924e-06
 1.100046e-06
 8.822798e-07
 6.614139e-07
 4.962647e-07
 5.826647e-07
 1.887426e-06
 -8.680948e-05
 0.000000e+00
 0.000000e+00
 2.060034e-06
 5.688723e-06
 7.156107e-06
 7.803931e-06
 8.108815e-06
 8.259019e-06
 8.332544e-06
 8.361875e-06
 8.359978e-06
 8.331227e-06
 8.276121e-06
 8.193361e-06
 8.080831e-06
 7.936151e-06
 7.757081e-06
 7.541898e-06
 7.289778e-06
 7.001161e-06
 6.678058e-06
 6.324249e-06
 5.945310e-06
 5.548448e-06
 5.142142e-06
 4.735618e-06
 4.338222e-06
 3.958767e-06
 3.604932e-06
 3.282768e-06
 2.996351e-06
 2.747573e-06
 2.536095e-06
 2.359417e-06
 2.213072e-06
 2.090922e-06
 1.985541e-06
 1.888643e-06
 1.791538e-06
 1.685541e-06
 1.562310e-06
 1.413998e-06
 1.233101e-06
 1.011704e-06
 7.394482e-07
 3.986321e-07
 -4.783559e-08
 -6.875470e-07
 -1.739011e-06
 -2.167498e-06
 -1.868186e-05
 0.000000e+00
 0.000000e+00
 8.007672e-06
 8.145189e-06
 8.142401e-06
 8.184040e-06
 8.213379e-06
 8.223526e-06
 8.216952e-06
 8.194762e-06
 8.155995e-06
 8.098606e-06
 8.020202e-06
 7.918386e-06
 7.790917e-06
 7.635817e-06
 7.451509e-06
 7.236996e-06
 6.992086e-06
 6.717606e-06
 6.415590e-06
 6.089385e-06
 5.743642e-06
 5.384173e-06
 5.017684e-06
 4.651388e-06
 4.292548e-06
 3.948004e-06
 3.623725e-06
 3.324429e-06
 3.053303e-06
 2.811832e-06
 2.599730e-06
 2.414982e-06
 2.253972e-06
 2.111688e-06
 1.981985e-06
 1.857865e-06
 1.731759e-06
 1.595734e-06
 1.441582e-06
 1.260660e-06
 1.043288e-06
 7.772859e-07
 4.446230e-07
 1.345261e-08
 -5.828208e-07
 -1.507422e-06
 -3.220183e-06
 -7.852899e-06
 -5.502427e-05
 0.000000e+00
 0.000000e+00
 1.560104e-05
 1.040633e-05
 9.106106e-06
 8.583264e-06
 8.337877e-06
 8.204321e-06
 8.116608e-06
 8.044058e-06
 7.970586e-06
 7.887007e-06
 7.787721e-06
 7.669107e-06
 7.528699e-06
 7.364789e-06
 7.176273e-06
 6.962663e-06
 6.724166e-06
 6.461807e-06
 6.177532e-06
 5.874258e-06
 5.555849e-06
 5.227004e-06
 4.893044e-06
 4.559630e-06
 4.232430e-06
 3.916765e-06
 3.617276e-06
 3.337631e-06
 3.080305e-06
 2.846432e-06
 2.635742e-06
 2.446574e-06
 2.275954e-06
 2.119733e-06
 1.972751e-06
 1.829017e-06
 1.681858e-06
 1.523992e-06
 1.347474e-06
 1.143400e-06
 9.012383e-07
 6.075175e-07
 2.434024e-07
 -2.197489e-07
 -8.287047e-07
 -1.665713e-06
 -2.907832e-06
 -6.354245e-06
 5.000218e-05
 0.000000e+00
 0.000000e+00
 1.320614e-05
 1.072838e-05
 9.447507e-06
 8.746515e-06
 8.363844e-06
 8.144237e-06
 8.003248e-06
 7.895325e-06
 7.795841e-06
 7.691424e-06
 7.574749e-06
 7.441741e-06
 7.290082e-06
 7.118464e-06
 6.926248e-06
 6.713352e-06
 6.480262e-06
 6.228090e-06
 5.958634e-06
 5.674405e-06
 5.378600e-06
 5.075009e-06
 4.767858e-06
 4.461600e-06
 4.160662e-06
 3.869188e-06
 3.590782e-06
 3.328290e-06
 3.083617e-06
 2.857614e-06
 2.650012e-06
 2.459420e-06
 2.283370e-06
 2.118400e-06
 1.960157e-06
 1.803497e-06
 1.642558e-06
 1.470753e-06
 1.280668e-06
 1.063767e-06
 8.099060e-07
 5.066069e-07
 1.383978e-07
 -3.124548e-07
 -8.579607e-07
 -1.462696e-06
 -1.826680e-06
 7.669817e-07
 1.628587e-05
 0.000000e+00
 0.000000e+00
 1.123561e-05
 1.012314e-05
 9.225591e-06
 8.611058e-06
 8.238025e-06
 8.011621e-06
 7.860092e-06
 7.739913e-06
 7.626975e-06
 7.508605e-06
 7.378386e-06
 7.233182e-06
 7.071527e-06
 6.892828e-06
 6.696997e-06
 6.484341e-06
 6.255556e-06
 6.011777e-06
 5.754625e-06
 5.486230e-06
 5.209212e-06
 4.926612e-06
 4.641777e-06
 4.358201e-06
 4.079339e-06
 3.808413e-06
 3.548218e-06
 3.300950e-06
 3.068071e-06
 2.850206e-06
 2.647091e-06
 2.457558e-06
 2.279558e-06
 2.110210e-06
 1.945861e-06
 1.782141e-06
 1.613988e-06
 1.435617e-06
 1.240413e-06
 1.020710e-06
 7.674882e-07
 4.700907e-07
 1.163615e-07
 -3.055670e-07
 -8.006396e-07
 -1.350205e-06
 -1.914505e-06
 -4.257887e-06
 -1.856177e-05
 0.000000e+00
 0.000000e+00
 1.053050e-05
 9.377941e-06
 8.675352e-06
 8.230741e-06
 7.970968e-06
 7.809045e-06
 7.688758e-06
 7.579078e-06
 7.464525e-06
 7.338144e-06
 7.197266e-06
 7.041205e-06
 6.870098e-06
 6.684385e-06
 6.484635e-06
 6.271531e-06
 6.045925e-06
 5.808923e-06
 5.561942e-06
 5.306750e-06
 5.045457e-06
 4.780476e-06
 4.514431e-06
 4.250048e-06
 3.990009e-06
 3.736807e-06
 3.492602e-06
 3.259082e-06
 3.037361e-06
 2.827897e-06
 2.630441e-06
 2.444024e-06
 2.266966e-06
 2.096902e-06
 1.930823e-06
 1.765100e-06
 1.595498e-06
 1.417143e-06
 1.224432e-06
 1.010888e-06
 7.689596e-07
 4.898374e-07
 1.633751e-07
 -2.219467e-07
 -6.804335e-07
 -1.239031e-06
 -1.971538e-06
 -2.896790e-06
 5.111227e-05
 0.000000e+00
 0.000000e+00
 1.073446e-05
 8.428122e-06
 7.834712e-06
 7.668767e-06
 7.611907e-06
 7.569045e-06
 7.509315e-06
 7.424455e-06
 7.314567e-06
 7.182479e-06
 7.031450e-06
 6.864318e-06
 6.683289e-06
 6.489996e-06
 6.285657e-06
 6.071264e-06
 5.847745e-06
 5.616107e-06
 5.377530e-06
 5.133420e-06
 4.885427e-06
 4.635419e-06
 4.385418e-06
 4.137520e-06
 3.893785e-06
 3.656128e-06
 3.426203e-06
 3.205304e-06
 2.994277e-06
 2.793458e-06
 2.602632e-06
 2.421017e-06
 2.247271e-06
 2.079508e-06
 1.915327e-06
 1.751832e-06
 1.585644e-06
 1.412880e-06
 1.229107e-06
 1.029238e-06
 8.073970e-07
 5.567123e-07
 2.689500e-07
 -6.654247e-08
 -4.669351e-07
 -9.721445e-07
 -1.701257e-06
 -4.344192e-06
 -1.246216e-06
 0.000000e+00
 0.000000e+00
 7.467559e-06
 6.273118e-06
 6.674787e-06
 7.024336e-06
 7.247446e-06
 7.349116e-06
 7.356198e-06
 7.295233e-06
 7.186846e-06
 7.045670e-06
 6.881624e-06
 6.701230e-06
 6.508677e-06
 6.306615e-06
 6.096725e-06
 5.880135e-06
 5.657714e-06
 5.430271e-06
 5.198691e-06
 4.964010e-06
 4.727441e-06
 4.490367e-06
 4.254297e-06
 4.020803e-06
 3.791440e-06
 3.567654e-06
 3.350703e-06
 3.141568e-06
 2.940893e-06
 2.748932e-06
 2.565517e-06
 2.390050e-06
 2.221507e-06
 2.058451e-06
 1.899065e-06
 1.741176e-06
 1.582273e-06
 1.419521e-06
 1.249745e-06
 1.069396e-06
 8.744644e-07
 6.603217e-07
 4.214227e-07
 1.509164e-07
 -1.591519e-07
 -5.155522e-07
 -9.406639e-07
 -3.126283e-06
 6.913161e-05
 0.000000e+00
 0.000000e+00
 -6.851515e-07
 3.966703e-06
 5.596324e-06
 6.518185e-06
 7.007043e-06
 7.223319e-06
 7.270019e-06
 7.212409e-06
 7.091128e-06
 6.931173e-06
 6.747765e-06
 6.550049e-06
 6.343418e-06
 6.130972e-06
 5.914450e-06
 5.694830e-06
 5.472718e-06
 5.248597e-06
 5.022985e-06
 4.796517e-06
 4.569982e-06
 4.344321e-06
 4.120597e-06
 3.899939e-06
 3.683483e-06
 3.472302e-06
 3.267330e-06
 3.069308e-06
 2.878725e-06
 2.695786e-06
 2.520382e-06
 2.352093e-06
 2.190191e-06
 2.033664e-06
 1.881252e-06
 1.731479e-06
 1.582696e-06
 1.433123e-06
 1.280883e-06
 1.124038e-06
 9.605952e-07
 7.884616e-07
 6.052468e-07
 4.080833e-07
 1.958209e-07
 -9.434310e-09
 -1.309409e-08
 1.270572e-06
 3.496561e-05
 0.000000e+00
 0.000000e+00
 5.692335e-07
 2.843201e-06
 5.179192e-06
 6.430348e-06
 7.030078e-06
 7.260949e-06
 7.284157e-06
 7.190739e-06
 7.032514e-06
 6.839155e-06
 6.627610e-06
 6.407415e-06
 6.183755e-06
 5.959284e-06
 5.735216e-06
 5.512000e-06
 5.289738e-06
 5.068437e-06
 4.848162e-06
 4.629116e-06
 4.411668e-06
 4.196351e-06
 3.983830e-06
 3.774861e-06
 3.570231e-06
 3.370705e-06
 3.176965e-06
 2.989559e-06
 2.808863e-06
 2.635051e-06
 2.468082e-06
 2.307701e-06
 2.153456e-06
 2.004728e-06
 1.860771e-06
 1.720769e-06
 1.583894e-06
 1.449382e-06
 1.316620e-06
 1.185263e-06
 1.055373e-06
 9.275766e-07
 8.030111e-07
 6.822073e-07
 5.596172e-07
 4.023889e-07
 7.325843e-08
 -1.930699e-06
 1.756511e-05
 0.000000e+00
 0.000000e+00
 -4.251654e-06
 3.292386e-06
 5.841114e-06
 6.962610e-06
 7.402223e-06
 7.495182e-06
 7.408755e-06
 7.230382e-06
 7.007021e-06
 6.764147e-06
 6.515415e-06
 6.267841e-06
 6.024675e-06
 5.787073e-06
 5.555076e-06
 5.328205e-06
 5.105808e-06
 4.887273e-06
 4.672139e-06
 4.460145e-06
 4.251248e-06
 4.045600e-06
 3.843519e-06
 3.645439e-06
 3.451862e-06
 3.263301e-06
 3.080236e-06
 2.903066e-06
 2.732080e-06
 2.567437e-06
 2.409161e-06
 2.257146e-06
 2.111185e-06
 1.971007e-06
 1.836333e-06
 1.706942e-06
 1.582754e-06
 1.463934e-06
 1.351021e-06
 1.245116e-06
 1.148164e-06
 1.063451e-06
 9.963399e-07
 9.547447e-07
 9.449132e-07
 9.376294e-07
 6.758547e-07
 -3.104736e-06
 5.254084e-05
 0.000000e+00
 0.000000e+00
 3.973961e-06
 6.614724e-06
 7.769125e-06
 8.120752e-06
 8.096069e-06
 7.896645e-06
 7.619056e-06
 7.311665e-06
 6.999188e-06
 6.693945e-06
 6.401468e-06
 6.123526e-06
 5.859856e-06
 5.609175e-06
 5.369787e-06
 5.139943e-06
 4.918043e-06
 4.702745e-06
 4.493011e-06
 4.288111e-06
 4.087605e-06
 3.891302e-06
 3.699217e-06
 3.511517e-06
 3.328470e-06
 3.150389e-06
 2.977593e-06
 2.810366e-06
 2.648930e-06
 2.493436e-06
 2.343961e-06
 2.200525e-06
 2.063127e-06
 1.931792e-06
 1.806636e-06
 1.687951e-06
 1.576307e-06
 1.472669e-06
 1.378552e-06
 1.296228e-06
 1.229062e-06
 1.182215e-06
 1.164384e-06
 1.192436e-06
 1.304294e-06
 1.596093e-06
 2.338421e-06
 3.304350e-06
 7.123376e-05
 0.000000e+00
 0.000000e+00
 1.339822e-05
 1.147501e-05
 1.043154e-05
 9.619977e-06
 8.949028e-06
 8.369029e-06
 7.855539e-06
 7.396105e-06
 6.983055e-06
 6.610386e-06
 6.272664e-06
 5.964781e-06
 5.681986e-06
 5.419979e-06
 5.174982e-06
 4.943782e-06
 4.723727e-06
 4.512705e-06
 4.309097e-06
 4.111727e-06
 3.919793e-06
 3.732811e-06
 3.550546e-06
 3.372951e-06
 3.200111e-06
 3.032186e-06
 2.869371e-06
 2.711861e-06
 2.559827e-06
 2.413407e-06
 2.272717e-06
 2.137870e-06
 2.009022e-06
 1.886426e-06
 1.770513e-06
 1.661987e-06