<VTKFile type="UnstructuredGrid"  version="0.1"   >
<UnstructuredGrid>  
<Piece  NumberOfPoints="     2601"  NumberOfCells="     5000">  
<Points>  
<DataArray  type="Float64"  NumberOfComponents="3"  format="ascii">  
 0.000000 0.000000 0.000000 
 0.020000 0.000000 0.000000 
 0.040000 0.000000 0.000000 
 0.060000 0.000000 0.000000 
 0.080000 0.000000 0.000000 
 0.100000 0.000000 0.000000 
 0.120000 0.000000 0.000000 
 0.140000 0.000000 0.000000 
 0.160000 0.000000 0.000000 
 0.180000 0.000000 0.000000 
 0.200000 0.000000 0.000000 
 0.220000 0.000000 0.000000 
 0.240000 0.000000 0.000000 
 0.260000 0.000000 0.000000 
 0.280000 0.000000 0.000000 
 0.300000 0.000000 0.000000 
 0.320000 0.000000 0.000000 
 0.340000 0.000000 0.000000 
 0.360000 0.000000 0.000000 
 0.380000 0.000000 0.000000 
 0.400000 0.000000 0.000000 
 0.420000 0.000000 0.000000 
 0.440000 0.000000 0.000000 
 0.460000 0.000000 0.000000 
 0.480000 0.000000 0.000000 
 0.500000 0.000000 0.000000 
 0.520000 0.000000 0.000000 
 0.540000 0.000000 0.000000 
 0.560000 0.000000 0.000000 
 0.580000 0.000000 0.000000 
 0.600000 0.000000 0.000000 
 0.620000 0.000000 0.000000 
 0.640000 0.000000 0.000000 
 0.660000 0.000000 0.000000 
 0.680000 0.000000 0.000000 
 0.700000 0.000000 0.000000 
 0.720000 0.000000 0.000000 
 0.740000 0.000000 0.000000 
 0.760000 0.000000 0.000000 
 0.780000 0.000000 0.000000 
 0.800000 0.000000 0.000000 
 0.820000 0.000000 0.000000 
 0.840000 0.000000 0.000000 
 0.860000 0.000000 0.000000 
 0.880000 0.000000 0.000000 
 0.900000 0.000000 0.000000 
 0.920000 0.000000 0.000000 
 0.940000 0.000000 0.000000 
 0.960000 0.000000 0.000000 
 0.980000 0.000000 0.000000 
 1.000000 0.000000 0.000000 
 0.000000 0.020000 0.000000 
 0.020000 0.020000 0.000000 
 0.040000 0.020000 0.000000 
 0.060000 0.020000 0.000000 
 0.080000 0.020000 0.000000 
 0.100000 0.020000 0.000000 
 0.120000 0.020000 0.000000 
 0.140000 0.020000 0.000000 
 0.160000 0.020000 0.000000 
 0.180000 0.020000 0.000000 
 0.200000 0.020000 0.000000 
 0.220000 0.020000 0.000000 
 0.240000 0.020000 0.000000 
 0.260000 0.020000 0.000000 
 0.280000 0.020000 0.000000 
 0.300000 0.020000 0.000000 
 0.320000 0.020000 0.000000 
 0.340000 0.020000 0.000000 
 0.360000 0.020000 0.000000 
 0.380000 0.020000 0.000000 
 0.400000 0.020000 0.000000 
 0.420000 0.020000 0.000000 
 0.440000 0.020000 0.000000 
 0.460000 0.020000 0.000000 
 0.480000 0.020000 0.000000 
 0.500000 0.020000 0.000000 
 0.520000 0.020000 0.000000 
 0.540000 0.020000 0.000000 
 0.560000 0.020000 0.000000 
 0.580000 0.020000 0.000000 
 0.600000 0.020000 0.000000 
 0.620000 0.020000 0.000000 
 0.640000 0.020000 0.000000 
 0.660000 0.020000 0.000000 
 0.680000 0.020000 0.000000 
 0.700000 0.020000 0.000000 
 0.720000 0.020000 0.000000 
 0.740000 0.020000 0.000000 
 0.760000 0.020000 0.000000 
 0.780000 0.020000 0.000000 
 0.800000 0.020000 0.000000 
 0.820000 0.020000 0.000000 
 0.840000 0.020000 0.000000 
 0.860000 0.020000 0.000000 
 0.880000 0.020000 0.000000 
 0.900000 0.020000 0.000000 
 0.920000 0.020000 0.000000 
 0.940000 0.020000 0.000000 
 0.960000 0.020000 0.000000 
 0.980000 0.020000 0.000000 
 1.000000 0.020000 0.000000 
 0.000000 0.040000 0.000000 
 0.020000 0.040000 0.000000 
 0.040000 0.040000 0.000000 
 0.060000 0.040000 0.000000 
 0.080000 0.040000 0.000000 
 0.100000 0.040000 0.000000 
 0.120000 0.040000 0.000000 
 0.140000 0.040000 0.000000 
 0.160000 0.040000 0.000000 
 0.180000 0.040000 0.000000 
 0.200000 0.040000 0.000000 
 0.220000 0.040000 0.000000 
 0.240000 0.040000 0.000000 
 0.260000 0.040000 0.000000 
 0.280000 0.040000 0.000000 
 0.300000 0.040000 0.000000 
 0.320000 0.040000 0.000000 
 0.340000 0.040000 0.000000 
 0.360000 0.040000 0.000000 
 0.380000 0.040000 0.000000 
 0.400000 0.040000 0.000000 
 0.420000 0.040000 0.000000 
 0.440000 0.040000 0.000000 
 0.460000 0.040000 0.000000 
 0.480000 0.040000 0.000000 
 0.500000 0.040000 0.000000 
 0.520000 0.040000 0.000000 
 0.540000 0.040000 0.000000 
 0.560000 0.040000 0.000000 
 0.580000 0.040000 0.000000 
 0.600000 0.040000 0.000000 
 0.620000 0.040000 0.000000 
 0.640000 0.040000 0.000000 
 0.660000 0.040000 0.000000 
 0.680000 0.040000 0.000000 
 0.700000 0.040000 0.000000 
 0.720000 0.040000 0.000000 
 0.740000 0.040000 0.000000 
 0.760000 0.040000 0.000000 
 0.780000 0.040000 0.000000 
 0.800000 0.040000 0.000000 
 0.820000 0.040000 0.000000 
 0.840000 0.040000 0.000000 
 0.860000 0.040000 0.000000 
 0.880000 0.040000 0.000000 
 0.900000 0.040000 0.000000 
 0.920000 0.040000 0.000000 
 0.940000 0.040000 0.000000 
 0.960000 0.040000 0.000000 
 0.980000 0.040000 0.000000 
 1.000000 0.040000 0.000000 
 0.000000 0.060000 0.000000 
 0.020000 0.060000 0.000000 
 0.040000 0.060000 0.000000 
 0.060000 0.060000 0.000000 
 0.080000 0.060000 0.000000 
 0.100000 0.060000 0.000000 
 0.120000 0.060000 0.000000 
 0.140000 0.060000 0.000000 
 0.160000 0.060000 0.000000 
 0.180000 0.060000 0.000000 
 0.200000 0.060000 0.000000 
 0.220000 0.060000 0.000000 
 0.240000 0.060000 0.000000 
 0.260000 0.060000 0.000000 
 0.280000 0.060000 0.000000 
 0.300000 0.060000 0.000000 
 0.320000 0.060000 0.000000 
 0.340000 0.060000 0.000000 
 0.360000 0.060000 0.000000 
 0.380000 0.060000 0.000000 
 0.400000 0.060000 0.000000 
 0.420000 0.060000 0.000000 
 0.440000 0.060000 0.000000 
 0.460000 0.060000 0.000000 
 0.480000 0.060000 0.000000 
 0.500000 0.060000 0.000000 
 0.520000 0.060000 0.000000 
 0.540000 0.060000 0.000000 
 0.560000 0.060000 0.000000 
 0.580000 0.060000 0.000000 
 0.600000 0.060000 0.000000 
 0.620000 0.060000 0.000000 
 0.640000 0.060000 0.000000 
 0.660000 0.060000 0.000000 
 0.680000 0.060000 0.000000 
 0.700000 0.060000 0.000000 
 0.720000 0.060000 0.000000 
 0.740000 0.060000 0.000000 
 0.760000 0.060000 0.000000 
 0.780000 0.060000 0.000000 
 0.800000 0.060000 0.000000 
 0.820000 0.060000 0.000000 
 0.840000 0.060000 0.000000 
 0.860000 0.060000 0.000000 
 0.880000 0.060000 0.000000 
 0.900000 0.060000 0.000000 
 0.920000 0.060000 0.000000 
 0.940000 0.060000 0.000000 
 0.960000 0.060000 0.000000 
 0.980000 0.060000 0.000000 
 1.000000 0.060000 0.000000 
 0.000000 0.080000 0.000000 
 0.020000 0.080000 0.000000 
 0.040000 0.080000 0.000000 
 0.060000 0.080000 0.000000 
 0.080000 0.080000 0.000000 
 0.100000 0.080000 0.000000 
 0.120000 0.080000 0.000000 
 0.140000 0.080000 0.000000 
 0.160000 0.080000 0.000000 
 0.180000 0.080000 0.000000 
 0.200000 0.080000 0.000000 
 0.220000 0.080000 0.000000 
 0.240000 0.080000 0.000000 
 0.260000 0.080000 0.000000 
 0.280000 0.080000 0.000000 
 0.300000 0.080000 0.000000 
 0.320000 0.080000 0.000000 
 0.340000 0.080000 0.000000 
 0.360000 0.080000 0.000000 
 0.380000 0.080000 0.000000 
 0.400000 0.080000 0.000000 
 0.420000 0.080000 0.000000 
 0.440000 0.080000 0.000000 
 0.460000 0.080000 0.000000 
 0.480000 0.080000 0.000000 
 0.500000 0.080000 0.000000 
 0.520000 0.080000 0.000000 
 0.540000 0.080000 0.000000 
 0.560000 0.080000 0.000000 
 0.580000 0.080000 0.000000 
 0.600000 0.080000 0.000000 
 0.620000 0.080000 0.000000 
 0.640000 0.080000 0.000000 
 0.660000 0.080000 0.000000 
 0.680000 0.080000 0.000000 
 0.700000 0.080000 0.000000 
 0.720000 0.080000 0.000000 
 0.740000 0.080000 0.000000 
 0.760000 0.080000 0.000000 
 0.780000 0.080000 0.000000 
 0.800000 0.080000 0.000000 
 0.820000 0.080000 0.000000 
 0.840000 0.080000 0.000000 
 0.860000 0.080000 0.000000 
 0.880000 0.080000 0.000000 
 0.900000 0.080000 0.000000 
 0.920000 0.080000 0.000000 
 0.940000 0.080000 0.000000 
 0.960000 0.080000 0.000000 
 0.980000 0.080000 0.000000 
 1.000000 0.080000 0.000000 
 0.000000 0.100000 0.000000 
 0.020000 0.100000 0.000000 
 0.040000 0.100000 0.000000 
 0.060000 0.100000 0.000000 
 0.080000 0.100000 0.000000 
 0.100000 0.100000 0.000000 
 0.120000 0.100000 0.000000 
 0.140000 0.100000 0.000000 
 0.160000 0.100000 0.000000 
 0.180000 0.100000 0.000000 
 0.200000 0.100000 0.000000 
 0.220000 0.100000 0.000000 
 0.240000 0.100000 0.000000 
 0.260000 0.100000 0.000000 
 0.280000 0.100000 0.000000 
 0.300000 0.100000 0.000000 
 0.320000 0.100000 0.000000 
 0.340000 0.100000 0.000000 
 0.360000 0.100000 0.000000 
 0.380000 0.100000 0.000000 
 0.400000 0.100000 0.000000 
 0.420000 0.100000 0.000000 
 0.440000 0.100000 0.000000 
 0.460000 0.100000 0.000000 
 0.480000 0.100000 0.000000 
 0.500000 0.100000 0.000000 
 0.520000 0.100000 0.000000 
 0.540000 0.100000 0.000000 
 0.560000 0.100000 0.000000 
 0.580000 0.100000 0.000000 
 0.600000 0.100000 0.000000 
 0.620000 0.100000 0.000000 
 0.640000 0.100000 0.000000 
 0.660000 0.100000 0.000000 
 0.680000 0.100000 0.000000 
 0.700000 0.100000 0.000000 
 0.720000 0.100000 0.000000 
 0.740000 0.100000 0.000000 
 0.760000 0.100000 0.000000 
 0.780000 0.100000 0.000000 
 0.800000 0.100000 0.000000 
 0.820000 0.100000 0.000000 
 0.840000 0.100000 0.000000 
 0.860000 0.100000 0.000000 
 0.880000 0.100000 0.000000 
 0.900000 0.100000 0.000000 
 0.920000 0.100000 0.000000 
 0.940000 0.100000 0.000000 
 0.960000 0.100000 0.000000 
 0.980000 0.100000 0.000000 
 1.000000 0.100000 0.000000 
 0.000000 0.120000 0.000000 
 0.020000 0.120000 0.000000 
 0.040000 0.120000 0.000000 
 0.060000 0.120000 0.000000 
 0.080000 0.120000 0.000000 
 0.100000 0.120000 0.000000 
 0.120000 0.120000 0.000000 
 0.140000 0.120000 0.000000 
 0.160000 0.120000 0.000000 
 0.180000 0.120000 0.000000 
 0.200000 0.120000 0.000000 
 0.220000 0.120000 0.000000 
 0.240000 0.120000 0.000000 
 0.260000 0.120000 0.000000 
 0.280000 0.120000 0.000000 
 0.300000 0.120000 0.000000 
 0.320000 0.120000 0.000000 
 0.340000 0.120000 0.000000 
 0.360000 0.120000 0.000000 
 0.380000 0.120000 0.000000 
 0.400000 0.120000 0.000000 
 0.420000 0.120000 0.000000 
 0.440000 0.120000 0.000000 
 0.460000 0.120000 0.000000 
 0.480000 0.120000 0.000000 
 0.500000 0.120000 0.000000 
 0.520000 0.120000 0.000000 
 0.540000 0.120000 0.000000 
 0.560000 0.120000 0.000000 
 0.580000 0.120000 0.000000 
 0.600000 0.120000 0.000000 
[...]
<PointData  Scalars="U"> 
<DataArray  type="Float64"  Name="U"  format="ascii"> 
 0.000000e+00
 0.000000e+00
 0.000000e+00
 0.000000e+00
 0.000000e+00
 0.000000e+00
 0.000000e+00
 0.000000e+00
 0.000000e+00
 0.000000e+00
 0.000000e+00
 0.000000e+00
 0.000000e+00
 0.000000e+00
 0.000000e+00
 0.000000e+00
 0.000000e+00
 0.000000e+00
 0.000000e+00
 0.000000e+00
 0.000000e+00
 0.000000e+00
 0.000000e+00
 0.000000e+00
 0.000000e+00
 0.000000e+00
 0.000000e+00
 0.000000e+00
 0.000000e+00
 0.000000e+00
 0.000000e+00
 0.000000e+00
 0.000000e+00
 0.000000e+00
 0.000000e+00
 0.000000e+00
 0.000000e+00
 0.000000e+00
 0.000000e+00
 0.000000e+00
 0.000000e+00
 0.000000e+00
 0.000000e+00
 0.000000e+00
 0.000000e+00
 0.000000e+00
 0.000000e+00
 0.000000e+00
 0.000000e+00
 0.000000e+00
 0.000000e+00
 0.000000e+00
 1.152167e-05
 2.037483e-05
 1.369715e-05
 7.472096e-06
 9.843670e-06
 6.776213e-06
 2.818629e-06
 9.922043e-06
 1.615982e-05
 1.394333e-05
 1.732881e-05
 1.504118e-05
 1.173007e-05
 8.362584e-06
 1.966292e-05
 2.838224e-05
 3.407663e-05
 3.261380e-05
 3.239896e-05
 3.218967e-05
 2.039580e-05
 1.832501e-05
 1.813129e-05
 -2.429032e-07
 -2.037080e-05
 -1.934764e-05
 -1.028238e-05
 -3.866822e-06
 -5.739902e-06
 -1.588126e-05
 -2.122744e-05
 -1.689206e-05
 -3.764390e-06
 -2.287239e-07
 1.085266e-07
 2.813435e-06
 1.745510e-05
 1.293152e-05
 7.377029e-06
 1.368946e-05
 1.275631e-05
 1.363860e-05
 1.615613e-05
 1.266963e-05
 2.719388e-06
 -2.660834e-06
 -1.699914e-06
 1.002141e-06
 8.263184e-05
 0.000000e+00
 0.000000e+00
 4.506720e-06
 1.174064e-05
 1.181862e-05
 1.020694e-05
 9.298904e-06
 8.310948e-06
 8.165697e-06
 1.027248e-05
 1.243809e-05
 1.354344e-05
 1.413362e-05
 1.389357e-05
 1.321346e-05
 1.423884e-05
 1.817758e-05
 2.266323e-05
 2.552274e-05
 2.612760e-05
 2.550709e-05
 2.310934e-05
 1.883663e-05
 1.490144e-05
 9.782710e-06
 1.265173e-06
 -6.576785e-06
 -9.011817e-06
 -7.549284e-06
 -6.080881e-06
 -7.207820e-06
 -1.006021e-05
 -1.147390e-05
 -9.166363e-06
 -4.734576e-06
 -1.199981e-06
 1.250139e-06
 4.697781e-06
 8.472914e-06
 9.199434e-06
 9.031264e-06
 9.898846e-06
 1.046246e-05
 1.073195e-05
 1.039854e-05
 8.063506e-06
 4.404677e-06
 2.003698e-06
 2.785958e-06
 9.488951e-06
 1.406679e-06
 0.000000e+00
 0.000000e+00
 8.890739e-06
 1.198068e-05
 1.181322e-05
 1.087964e-05
 1.007445e-05
 9.606103e-06
 9.761209e-06
 1.068983e-05
 1.184739e-05
 1.274736e-05
 1.331646e-05
 1.361145e-05
 1.399714e-05
 1.514893e-05
 1.727649e-05
 1.962530e-05
 2.125046e-05
 2.169508e-05
 2.097111e-05
 1.904865e-05
 1.609277e-05
 1.250511e-05
 8.111167e-06
 2.930680e-06
 -1.643013e-06
 -4.167359e-06
 -4.875886e-06
 -5.099997e-06
 -5.823762e-06
 -6.822650e-06
 -7.037159e-06
 -5.750668e-06
 -3.393448e-06
 -8.900068e-07
 1.462370e-06
 3.866616e-06
 5.983882e-06
 7.168586e-06
 7.755527e-06
 8.245704e-06
 8.539172e-06
 8.470399e-06
 7.807458e-06
 6.322724e-06
 4.404837e-06
 2.996291e-06
 2.878616e-06
 6.196166e-06
 -5.042864e-05
 0.000000e+00
 0.000000e+00
 2.118440e-05
 1.455361e-05
 1.244433e-05
 1.127012e-05
 1.057198e-05
 1.027442e-05
 1.040139e-05
 1.091427e-05
 1.161002e-05
 1.227638e-05
 1.283083e-05
 1.332284e-05
 1.393111e-05
 1.486782e-05
 1.613517e-05
 1.741195e-05
 1.826209e-05
 1.838555e-05
 1.767073e-05
 1.611345e-05
 1.381197e-05
 1.092176e-05
 7.562422e-06
 4.011260e-06
 8.669055e-07
 -1.338648e-06
 -2.610566e-06
 -3.377555e-06
 -3.999924e-06
 -4.435028e-06
 -4.346740e-06
 -3.505766e-06
 -2.047189e-06
 -3.070990e-07
 1.484123e-06
 3.213212e-06
 4.696165e-06
 5.750081e-06
 6.415676e-06
 6.817260e-06
 6.961447e-06
 6.775331e-06
 6.169870e-06
 5.132221e-06
 3.849316e-06
 2.605280e-06
 1.316153e-06
 -2.203881e-06
 -5.219231e-05
 0.000000e+00
 0.000000e+00
 2.202053e-05
 1.484786e-05
 1.235188e-05
 1.122308e-05
 1.068676e-05
 1.050778e-05
 1.061701e-05
 1.095637e-05
 1.142933e-05
 1.193743e-05
 1.243190e-05
 1.292998e-05
 1.349770e-05
 1.418987e-05
 1.496481e-05
 1.565505e-05
 1.603677e-05
 1.592741e-05
 1.523154e-05
 1.393678e-05
 1.210106e-05
 9.832661e-06
 7.281480e-06
 4.677328e-06
 2.326219e-06
 4.741936e-07
 -8.329675e-07
 -1.717926e-06
 -2.304840e-06
 -2.593169e-06
 -2.484862e-06
 -1.917045e-06
 -9.532885e-07
 2.523461e-07
 1.545295e-06
 2.798386e-06
 3.891537e-06
 4.734863e-06
 5.309518e-06
 5.634816e-06
 5.710415e-06
 5.509317e-06
 5.005439e-06
 4.213159e-06
 3.206401e-06
 2.059192e-06
 7.319333e-07
 -1.430583e-07
 1.703268e-05
 0.000000e+00
 0.000000e+00
 1.491514e-05
 1.206737e-05
 1.110654e-05
 1.065920e-05
 1.046693e-05
 1.045237e-05
 1.059317e-05
 1.086430e-05
 1.122313e-05
 1.162384e-05
 1.203878e-05
 1.246680e-05
 1.292202e-05
 1.340467e-05
 1.386898e-05
 1.421547e-05
 1.431872e-05
 1.406946e-05
 1.340331e-05
 1.230944e-05
 1.082755e-05
 9.040686e-06
 7.071369e-06
 5.080778e-06
 3.246912e-06
 1.709624e-06
 5.237103e-07
 -3.304204e-07
 -8.886075e-07
 -1.155285e-06
 -1.108057e-06
 -7.411171e-07
 -9.878690e-08
 7.309141e-07
 1.645487e-06
 2.547515e-06
 3.351705e-06
 3.995457e-06
 4.447335e-06
 4.696806e-06
 4.735863e-06
 4.553125e-06
 4.141923e-06
 3.511030e-06
 2.681717e-06
 1.665950e-06
 4.983929e-07
 1.486026e-07
 -3.532074e-05
 0.000000e+00
 0.000000e+00
 5.344209e-06
 8.226560e-06
 9.413026e-06
 9.867349e-06
 1.007677e-05
 1.024001e-05
 1.043518e-05
 1.068382e-05
 1.097850e-05
 1.130103e-05
 1.163570e-05
 1.197424e-05
 1.231051e-05
 1.262770e-05
 1.288620e-05
 1.302232e-05
 1.296133e-05
 1.263758e-05
 1.201137e-05
 1.107726e-05
 9.865325e-06
 8.438233e-06
 6.886600e-06
 5.320986e-06
 3.854890e-06
 2.579696e-06
 1.546291e-06
 7.681352e-07
 2.418611e-07
 -3.445475e-08
 -6.070648e-08
 1.514191e-07
 5.663952e-07
 1.125927e-06
 1.759986e-06
 2.398238e-06
 2.978221e-06
 3.451690e-06
 3.787497e-06
 3.968211e-06
 3.983794e-06
 3.828363e-06
 3.500986e-06
 3.005300e-06
 2.339371e-06
 1.465686e-06
 2.213389e-07
 -2.818593e-06
 -5.445722e-07
 0.000000e+00
 0.000000e+00
 -5.352481e-07
 6.057657e-06
 8.349053e-06
 9.278300e-06
 9.715289e-06
 9.987151e-06
 1.021905e-05
 1.045561e-05
 1.070669e-05
 1.096761e-05
 1.122934e-05
 1.148217e-05
 1.171393e-05
 1.190494e-05
 1.202373e-05
 1.202794e-05
 1.187127e-05
 1.151411e-05
 1.093334e-05
 1.012836e-05
 9.122982e-06
 7.963928e-06
 6.716613e-06
 5.457807e-06
 4.264512e-06
 3.201165e-06
 2.310907e-06
 1.615647e-06
 1.123181e-06
 8.342665e-07
 7.438439e-07
 8.369996e-07
 1.085096e-06
 1.446484e-06
 1.871629e-06
 2.309684e-06
 2.714314e-06
 3.047972e-06
 3.283868e-06
 3.405295e-06
 3.403580e-06
 3.276580e-06
 3.027951e-06
 2.664840e-06
 2.189492e-06
 1.576826e-06
 7.301739e-07
 -1.339067e-07
 1.728780e-05
 0.000000e+00
 0.000000e+00
 3.147557e-06
 7.037455e-06
 8.437065e-06
 9.105499e-06
 9.490371e-06
 9.762567e-06
 9.993024e-06
 1.021068e-05
 1.042449e-05
 1.063344e-05
 1.083156e-05
 1.100988e-05
 1.115601e-05
 1.125236e-05
 1.127511e-05
 1.119559e-05
 1.098455e-05
 1.061813e-05
 1.008368e-05
 9.383739e-06
 8.537515e-06
 7.579897e-06
 6.558225e-06
 5.526907e-06
 4.540359e-06
 3.645778e-06
 2.878185e-06
 2.259390e-06
 1.800151e-06
 1.502843e-06
 1.362375e-06
 1.365333e-06
 1.489158e-06
 1.703096e-06
 1.971154e-06
 2.256082e-06
 2.523259e-06
 2.743737e-06
 2.896021e-06
 2.966577e-06
 2.949652e-06
 2.847168e-06
 2.668928e-06
 2.432848e-06
 2.165160e-06
 1.901224e-06
 1.664346e-06
 -9.259066e-08
 5.535988e-07
 0.000000e+00
 0.000000e+00
 1.279875e-05
 9.689661e-06
 9.142128e-06
 9.179148e-06
 9.363970e-06
 9.573524e-06
 9.776752e-06
 9.968032e-06
 1.014642e-05
 1.030968e-05
 1.045303e-05
 1.056892e-05
 1.064677e-05
 1.067247e-05
 1.062859e-05
 1.049568e-05
 1.025514e-05
 9.892777e-06
 9.402356e-06
 8.788082e-06
 8.065576e-06
 7.261152e-06
 6.409494e-06
 5.549966e-06
 4.722086e-06
 3.961104e-06
 3.294809e-06
 2.742240e-06
 2.314006e-06
 2.013188e-06
 1.835898e-06
 1.771372e-06
 1.802206e-06
 1.905384e-06
 2.054273e-06
 2.221214e-06
 2.380182e-06
 2.509043e-06
 2.591194e-06
 2.616603e-06
 2.582601e-06
 2.494869e-06
 2.369098e-06
 2.234014e-06
 2.138649e-06
 2.178658e-06
 2.626202e-06
 5.671981e-06
 3.647993e-05
 0.000000e+00
 0.000000e+00
 1.650854e-05
 1.072109e-05
 9.402392e-06
 9.145458e-06
 9.224917e-06
 9.394037e-06
 9.572870e-06
 9.737955e-06
 9.883036e-06
 1.000540e-05
 1.010144e-05
 1.016540e-05
 1.018907e-05
 1.016182e-05
 1.007120e-05
 9.904149e-06
 9.648900e-06
 9.297270e-06
 8.846835e-06
 8.302486e-06
 7.676990e-06
 6.990447e-06
 6.268657e-06
 5.540628e-06
 4.835613e-06
 4.180235e-06
 3.596287e-06
 3.099514e-06
 2.699300e-06
 2.398858e-06
 2.195525e-06
 2.081086e-06
 2.042288e-06
 2.061790e-06
 2.119622e-06
 2.194987e-06
 2.268149e-06
 2.322165e-06
 2.344330e-06
 2.327416e-06
 2.270913e-06
 2.182700e-06
 2.081626e-06
 2.001501e-06
 1.996187e-06
 2.141340e-06
 2.517810e-06
 3.776209e-06
 -5.078848e-05
 0.000000e+00
 0.000000e+00
 1.056576e-05
 9.138782e-06
 8.790957e-06
 8.841723e-06
 9.019371e-06
 9.212601e-06
 9.385002e-06
 9.528257e-06
 9.642149e-06
 9.727047e-06
 9.781508e-06
 9.801780e-06
 9.781956e-06
 9.714399e-06
 9.590441e-06
 9.401417e-06
 9.140023e-06
 8.801812e-06
 8.386575e-06
 7.899288e-06
 7.350427e-06
 6.755537e-06
 6.134097e-06
 5.507821e-06
 4.898667e-06
 4.326902e-06
 3.809516e-06
 3.359198e-06
 2.983847e-06
 2.686486e-06
 2.465404e-06
 2.314464e-06
 2.223621e-06
 2.179727e-06
 2.167621e-06
 2.171437e-06
 2.175979e-06
 2.168047e-06
 2.137656e-06
 2.079191e-06
 1.992724e-06
 1.885839e-06
 1.776584e-06
 1.698266e-06
 1.705311e-06
 1.865593e-06
 2.123641e-06
 4.704066e-07
 1.140862e-06
 0.000000e+00
 0.000000e+00
 4.497204e-06
 6.682758e-06
 7.825226e-06
 8.437346e-06
 8.809409e-06
 9.055968e-06
 9.227319e-06
 9.347894e-06
 9.429909e-06
 9.478736e-06
 9.495400e-06
 9.477957e-06
 9.422395e-06
 9.323374e-06
 9.174971e-06
 8.971537e-06
 8.708679e-06
 8.384265e-06
 7.999303e-06
 7.558531e-06
 7.070562e-06
 6.547557e-06
 6.004414e-06
 5.457596e-06
 4.923772e-06
 4.418458e-06
 3.954870e-06
 3.543095e-06
 3.189609e-06
 2.897092e-06
 2.664484e-06
 2.487219e-06
 2.357664e-06
 2.265755e-06
 2.199811e-06
 2.147496e-06
 2.096818e-06
 2.037116e-06
 1.959988e-06
 1.860190e-06
 1.736643e-06
 1.593829e-06
 1.444252e-06
 1.313712e-06
 1.254823e-06
 1.390183e-06
 2.101143e-06
 7.345284e-06
 1.367008e-06
 0.000000e+00
 0.000000e+00
 5.741350e-07
 5.347999e-06
 7.320794e-06
 8.248605e-06
 8.715932e-06
 8.970793e-06
 9.118562e-06
 9.205019e-06
 9.250158e-06
 9.262104e-06
 9.243061e-06
 9.192029e-06
 9.106192e-06
 8.981775e-06
 8.814741e-06
 8.601462e-06
 8.339423e-06
 8.027896e-06
 7.668504e-06
 7.265574e-06
 6.826201e-06
 6.359983e-06
 5.878437e-06
 5.394181e-06
 4.919973e-06
 4.467755e-06
 4.047800e-06
 3.668065e-06
 3.333771e-06
 3.047202e-06
 2.807703e-06
 2.611851e-06
 2.453790e-06
 2.325705e-06
 2.218432e-06
 2.122143e-06
 2.027059e-06
 1.924136e-06
 1.805673e-06
 1.665840e-06
 1.501102e-06
 1.310616e-06
 1.096768e-06
 8.667519e-07
 6.392074e-07
 4.722078e-07
 5.604258e-07
 1.869841e-06
 -8.681950e-05
 0.000000e+00
 0.000000e+00
 2.317589e-06
 6.148777e-06
 7.747436e-06
 8.469927e-06
 8.814045e-06
 8.983983e-06
 9.067303e-06
 9.101674e-06
 9.102692e-06
 9.075961e-06
 9.022421e-06
 8.940751e-06
 8.828523e-06
 8.682861e-06
 8.500940e-06
 8.280447e-06
 8.020054e-06
 7.719853e-06
 7.381712e-06
 7.009484e-06
 6.609013e-06
 6.187923e-06
 5.755195e-06
 5.320577e-06
 4.893902e-06
 4.484396e-06
 4.100047e-06
 3.747100e-06
 3.429715e-06
 3.149776e-06
 2.906864e-06
 2.698364e-06
 2.519711e-06
 2.364731e-06
 2.226078e-06
 2.095710e-06
 1.965368e-06
 1.827008e-06
 1.673114e-06
 1.496840e-06
 1.291829e-06
 1.051471e-06
 7.669200e-07
 4.221780e-07
 -1.841744e-08
 -6.433884e-07
 -1.679102e-06
 -2.106587e-06
 -1.864404e-05
 0.000000e+00
 0.000000e+00
 8.408336e-06
 8.812113e-06
 8.938397e-06
 9.028433e-06
 9.069330e-06
 9.076392e-06
 9.061697e-06
 9.030183e-06
 8.982271e-06
 8.916281e-06
 8.829739e-06
 8.719961e-06
 8.584297e-06
 8.420293e-06
 8.225874e-06
 7.999572e-06
 7.740793e-06
 7.450086e-06
 7.129347e-06
 6.781940e-06
 6.412675e-06
 6.027633e-06
 5.633857e-06
 5.238926e-06
 4.850453e-06
 4.475587e-06
 4.120538e-06
 3.790190e-06
 3.487825e-06
 3.214955e-06
 2.971282e-06
 2.754761e-06
 2.561762e-06
 2.387316e-06
 2.225405e-06
 2.069287e-06
 1.911788e-06
 1.745532e-06
 1.563034e-06
 1.356563e-06
 1.117599e-06
 8.355060e-07
 4.944700e-07
 6.598006e-08
 -5.118227e-07
 -1.397986e-06
 -3.062387e-06
 -7.685030e-06
 -5.492363e-05
 0.000000e+00
 0.000000e+00
 1.631008e-05
 1.142548e-05
 1.018319e-05
 9.639037e-06
 9.357227e-06
 9.189261e-06
 9.072184e-06
 8.974775e-06
 8.879818e-06
 8.777124e-06
 8.660301e-06
 8.525089e-06
 8.368472e-06
 8.188241e-06
 7.982838e-06
 7.751364e-06
 7.493690e-06
 7.210597e-06
 6.903894e-06
 6.576472e-06
 6.232277e-06
 5.876167e-06
 5.513683e-06
 5.150736e-06
 4.793239e-06
 4.446737e-06
 4.116056e-06
 3.805000e-06
 3.516134e-06
 3.250644e-06
 3.008283e-06
 2.787410e-06
 2.585086e-06
 2.397243e-06
 2.218870e-06
 2.044216e-06
 1.866953e-06
 1.680266e-06
 1.476814e-06
 1.248470e-06
 9.857389e-07
 6.766573e-07
 3.048410e-07
 -1.538953e-07
 -7.374626e-07
 -1.509805e-06
 -2.615126e-06
 -5.978976e-06
 5.019064e-05
 0.000000e+00
 0.000000e+00
 1.476494e-05
 1.232775e-05
 1.086539e-05
 1.002236e-05
 9.542768e-06
 9.255779e-06
 9.065101e-06
 8.917997e-06
 8.785696e-06
 8.652431e-06
 8.509447e-06
 8.351748e-06
 8.176363e-06
 7.981470e-06
 7.766000e-06
 7.529507e-06
 7.272178e-06
 6.994903e-06
 6.699337e-06
 6.387934e-06
 6.063908e-06
 5.731136e-06
 5.393974e-06
 5.057033e-06
 4.724907e-06
 4.401896e-06
 4.091738e-06
 3.797387e-06
 3.520828e-06
 3.262968e-06
 3.023580e-06
 2.801318e-06
 2.593773e-06
 2.397577e-06
 2.208523e-06
 2.021677e-06
 1.831457e-06
 1.631645e-06
 1.415274e-06
 1.174374e-06
 8.995299e-07
 5.793080e-07
 1.999709e-07
 -2.527851e-07
 -7.828176e-07
 -1.331099e-06
 -1.512369e-06
 2.199071e-06
 1.656064e-05
 0.000000e+00
 0.000000e+00
 1.486951e-05
 1.234401e-05
 1.092631e-05
 1.006091e-05
 9.547959e-06
 9.232870e-06
 9.018203e-06
 8.848454e-06
 8.693634e-06
 8.538044e-06
 8.373625e-06
 8.196272e-06
 8.003880e-06
 7.795376e-06
 7.570290e-06
 7.328603e-06
 7.070742e-06
 6.797633e-06
 6.510747e-06
 6.212128e-06
 5.904370e-06
 5.590538e-06
 5.274043e-06
 4.958467e-06
 4.647367e-06
 4.344067e-06
 4.051452e-06
 3.771800e-06
 3.506633e-06
 3.256630e-06
 3.021575e-06
 2.800349e-06
 2.590970e-06
 2.390650e-06
 2.195862e-06
 2.002407e-06
 1.805436e-06
 1.599419e-06
 1.378024e-06
 1.133885e-06
 8.582757e-07
 5.407981e-07
 1.694801e-07
 -2.675189e-07
 -7.755174e-07
 -1.337675e-06
 -1.923215e-06
 -4.239454e-06
 -3.599024e-05
 0.000000e+00
 0.000000e+00
 1.437886e-05
 1.161124e-05
 1.043174e-05
 9.756583e-06
 9.365453e-06
 9.116461e-06
 8.930469e-06
 8.766238e-06
 8.603537e-06
 8.433097e-06
 8.251045e-06
 8.055993e-06
 7.847600e-06
 7.625937e-06
 7.391254e-06
 7.143954e-06
 6.884648e-06
 6.614237e-06
 6.333983e-06
 6.045543e-06
 5.750963e-06
 5.452633e-06
 5.153187e-06
 4.855384e-06
 4.561955e-06
 4.275449e-06
 3.998078e-06
 3.731584e-06
 3.477123e-06
 3.235195e-06
 3.005594e-06
 2.787398e-06
 2.578987e-06
 2.378077e-06
 2.181762e-06
 1.986542e-06
 1.788330e-06
 1.582404e-06
 1.363293e-06
 1.124578e-06
 8.585914e-07
 5.560367e-07
 2.054683e-07
 -2.078305e-07
 -7.063883e-07
 -1.341033e-06
 -2.268472e-06
 -3.892679e-06
 5.085936e-05
 0.000000e+00
 0.000000e+00
 1.209130e-05
 1.011159e-05
 9.439570e-06
 9.183564e-06
 9.051148e-06
 8.943116e-06
 8.824286e-06
 8.684197e-06
 8.522006e-06
 8.340136e-06
 8.141621e-06
 7.929113e-06
 7.704616e-06
 7.469540e-06
 7.224869e-06
 6.971360e-06
 6.709718e-06
 6.440752e-06
 6.165472e-06
 5.885154e-06
 5.601350e-06
 5.315864e-06
 5.030685e-06
 4.747896e-06
 4.469564e-06
 4.197616e-06
 3.933731e-06
 3.679223e-06
 3.434963e-06
 3.201314e-06
 2.978091e-06
 2.764550e-06
 2.559398e-06
 2.360813e-06
 2.166471e-06
 1.973566e-06
 1.778816e-06
 1.578416e-06
 1.367961e-06
 1.142272e-06
 8.951275e-07
 6.188043e-07
 3.032015e-07
 -6.626788e-08
 -5.149468e-07
 -1.098992e-06
 -1.960877e-06
 -4.722110e-06
 -1.496557e-06
 0.000000e+00
 0.000000e+00
 8.262914e-06
 7.534744e-06
 8.117439e-06
 8.511500e-06
 8.721431e-06
 8.784158e-06
 8.740754e-06
 8.624711e-06
 8.460217e-06
 8.263736e-06
 8.046074e-06
 7.814119e-06
 7.572140e-06
 7.322700e-06
 7.067317e-06
 6.806915e-06
 6.542149e-06
 6.273625e-06
 6.002047e-06
 5.728294e-06
 5.453451e-06
 5.178804e-06
 4.905790e-06
 4.635929e-06
 4.370744e-06
 4.111662e-06
 3.859930e-06
 3.616527e-06
 3.382101e-06
 3.156913e-06
 2.940812e-06
 2.733226e-06
 2.533160e-06
 2.339226e-06
 2.149661e-06
 1.962353e-06
 1.774851e-06
 1.584360e-06
 1.387694e-06
 1.181181e-06
 9.604728e-07
 7.201930e-07
 4.533186e-07
 1.503373e-07
 -2.008024e-07
 -6.106093e-07
 -1.094301e-06
 -3.304389e-06
 6.901257e-05
 0.000000e+00
 0.000000e+00
 -3.094019e-08
 5.099588e-06
 6.995510e-06
 8.028751e-06
 8.539036e-06
 8.729812e-06
 8.728238e-06
 8.612381e-06
 8.429486e-06
 8.207879e-06
 7.964392e-06
 7.708875e-06
 7.446953e-06
 7.181710e-06
 6.914742e-06
 6.646828e-06
 6.378354e-06
 6.109584e-06
 5.840834e-06
 5.572556e-06
 5.305383e-06
 5.040127e-06
 4.777741e-06
 4.519272e-06
 4.265790e-06
 4.018314e-06
 3.777744e-06
 3.544792e-06
 3.319930e-06
 3.103352e-06
 2.894951e-06
 2.694313e-06
 2.500728e-06
 2.313213e-06
 2.130540e-06
 1.951275e-06
 1.773812e-06
 1.596399e-06
 1.417165e-06
 1.234121e-06
 1.045125e-06
 8.477530e-07
 6.390108e-07
 4.151118e-07
 1.740401e-07
 -6.118536e-08
 -8.928077e-08
 1.190225e-06
 3.491341e-05
 0.000000e+00
 0.000000e+00
 1.288472e-06
 4.075890e-06
 6.688780e-06
 8.049832e-06
 8.663850e-06
 8.859861e-06
 8.825043e-06
 8.664061e-06
 8.435626e-06
 8.172788e-06
 7.894062e-06
 7.609629e-06
 7.324850e-06
 7.042313e-06
 6.763052e-06
 6.487285e-06
 6.214863e-06
 5.945550e-06
 5.679179e-06
 5.415742e-06
 5.155424e-06
 4.898594e-06
 4.645780e-06
 4.397620e-06
 4.154808e-06
 3.918028e-06
 3.687899e-06
 3.464919e-06
 3.249425e-06
 3.041564e-06
 2.841277e-06
 2.648301e-06
 2.462186e-06
 2.282322e-06
 2.107982e-06
 1.938374e-06
 1.772702e-06
 1.610240e-06
 1.450423e-06
 1.292972e-06
 1.138063e-06
 9.865163e-07
 8.398261e-07
 6.991320e-07
 5.598134e-07
 3.901926e-07
 5.421217e-08
 -1.949946e-06
 1.755285e-05
 0.000000e+00
 0.000000e+00
 -3.221761e-06
 4.877108e-06
 7.625858e-06
 8.781803e-06
 9.183504e-06
 9.207705e-06
 9.040795e-06
 8.779154e-06
 8.473878e-06
 8.152264e-06
 7.828675e-06
 7.510289e-06
 7.200258e-06
 6.899512e-06
 6.607813e-06
 6.324385e-06
 6.048279e-06
 5.778600e-06
 5.514622e-06
 5.255843e-06
 5.002003e-06
 4.753063e-06
 4.509172e-06
 4.270620e-06
 4.037784e-06
 3.811072e-06
 3.590878e-06
 3.377527e-06
 3.171253e-06
 2.972167e-06
 2.780260e-06
 2.595403e-06
 2.417373e-06
 2.245895e-06
 2.080690e-06
 1.921547e-06
 1.768409e-06
 1.621482e-06
 1.481388e-06
 1.349391e-06
 1.227770e-06
 1.120456e-06
 1.034029e-06
 9.784510e-07
 9.627509e-07
 9.594280e-07
 7.072685e-07
 -3.070493e-06
 5.256251e-05
 0.000000e+00
 0.000000e+00
 5.942528e-06
 8.889788e-06
 9.976615e-06
 1.020441e-05
 1.005239e-05
 9.732972e-06
 9.344301e-06
 8.934183e-06
 8.526443e-06
 8.132582e-06
 7.757451e-06
 7.402244e-06
 7.066198e-06
 6.747579e-06
 6.444281e-06
 6.154172e-06
 5.875298e-06
 5.605989e-06
 5.344905e-06
 5.091043e-06
 4.843715e-06
 4.602507e-06
 4.367241e-06
 4.137909e-06
 3.914630e-06
 3.697589e-06
 3.486995e-06
 3.283039e-06
 3.085869e-06
 2.895573e-06
 2.712178e-06
 2.535667e-06
 2.366008e-06
 2.203206e-06
 2.047362e-06
 1.898760e-06
 1.757973e-06
 1.625995e-06
 1.504419e-06
 1.395699e-06
 1.303604e-06
 1.234149e-06
 1.197774e-06
 1.214746e-06
 1.328976e-06
 1.644274e-06
 2.427612e-06
 3.411148e-06
 7.129822e-05
 0.000000e+00
 0.000000e+00
 1.770630e-05
 1.464280e-05
 1.309584e-05
 1.196698e-05
 1.107193e-05
 1.032001e-05
 9.665609e-06
 9.084927e-06
 8.564084e-06
 8.093596e-06
 7.665993e-06
 7.274889e-06
 6.914653e-06
 6.580325e-06
 6.267591e-06
 5.972773e-06
 5.692807e-06
 5.425208e-06
 5.168020e-06
 4.919757e-06
 4.679342e-06
 4.446041e-06
 4.219394e-06
 3.999158e-06
 3.785242e-06
 3.577657e-06
 3.376467e-06
 3.181756e-06
 2.993602e-06
 2.812069e-06
 2.637208e-06
 2.469082e-06
 2.307804e-06
 2.153589e-06
 2.006838e-06
 1.868226e-06