<VTKFile type="UnstructuredGrid"  version="0.1"   >
<UnstructuredGrid>  
<Piece  NumberOfPoints="     2601"  NumberOfCells="     5000">  
<Points>  
<DataArray  type="Float64"  NumberOfComponents="3"  format="ascii">  
 0.000000 0.000000 0.000000 
 0.020000 0.000000 0.000000 
 0.040000 0.000000 0.000000 
 0.060000 0.000000 0.000000 
 0.080000 0.000000 0.000000 
 0.100000 0.000000 0.000000 
 0.120000 0.000000 0.000000 
 0.140000 0.000000 0.000000 
 0.160000 0.000000 0.000000 
 0.180000 0.000000 0.000000 
 0.200000 0.000000 0.000000 
 0.220000 0.000000 0.000000 
 0.240000 0.000000 0.000000 
 0.260000 0.000000 0.000000 
 0.280000 0.000000 0.000000 
 0.300000 0.000000 0.000000 
 0.320000 0.000000 0.000000 
 0.340000 0.000000 0.000000 
 0.360000 0.000000 0.000000 
 0.380000 0.000000 0.000000 
 0.400000 0.000000 0.000000 
 0.420000 0.000000 0.000000 
 0.440000 0.000000 0.000000 
 0.460000 0.000000 0.000000 
 0.480000 0.000000 0.000000 
 0.500000 0.000000 0.000000 
 0.520000 0.000000 0.000000 
 0.540000 0.000000 0.000000 
 0.560000 0.000000 0.000000 
 0.580000 0.000000 0.000000 
 0.600000 0.000000 0.000000 
 0.620000 0.000000 0.000000 
 0.640000 0.000000 0.000000 
 0.660000 0.000000 0.000000 
 0.680000 0.000000 0.000000 
 0.700000 0.000000 0.000000 
 0.720000 0.000000 0.000000 
 0.740000 0.000000 0.000000 
 0.760000 0.000000 0.000000 
 0.780000 0.000000 0.000000 
 0.800000 0.000000 0.000000 
 0.820000 0.000000 0.000000 
 0.840000 0.000000 0.000000 
 0.860000 0.000000 0.000000 
 0.880000 0.000000 0.000000 
 0.900000 0.000000 0.000000 
 0.920000 0.000000 0.000000 
 0.940000 0.000000 0.000000 
 0.960000 0.000000 0.000000 
 0.980000 0.000000 0.000000 
 1.000000 0.000000 0.000000 
 0.000000 0.020000 0.000000 
 0.020000 0.020000 0.000000 
 0.040000 0.020000 0.000000 
 0.060000 0.020000 0.000000 
 0.080000 0.020000 0.000000 
 0.100000 0.020000 0.000000 
 0.120000 0.020000 0.000000 
 0.140000 0.020000 0.000000 
 0.160000 0.020000 0.000000 
 0.180000 0.020000 0.000000 
 0.200000 0.020000 0.000000 
 0.220000 0.020000 0.000000 
 0.240000 0.020000 0.000000 
 0.260000 0.020000 0.000000 
 0.280000 0.020000 0.000000 
 0.300000 0.020000 0.000000 
 0.320000 0.020000 0.000000 
 0.340000 0.020000 0.000000 
 0.360000 0.020000 0.000000 
 0.380000 0.020000 0.000000 
 0.400000 0.020000 0.000000 
 0.420000 0.020000 0.000000 
 0.440000 0.020000 0.000000 
 0.460000 0.020000 0.000000 
 0.480000 0.020000 0.000000 
 0.500000 0.020000 0.000000 
 0.520000 0.020000 0.000000 
 0.540000 0.020000 0.000000 
 0.560000 0.020000 0.000000 
 0.580000 0.020000 0.000000 
 0.600000 0.020000 0.000000 
 0.620000 0.020000 0.000000 
 0.640000 0.020000 0.000000 
 0.660000 0.020000 0.000000 
 0.680000 0.020000 0.000000 
 0.700000 0.020000 0.000000 
 0.720000 0.020000 0.000000 
 0.740000 0.020000 0.000000 
 0.760000 0.020000 0.000000 
 0.780000 0.020000 0.000000 
 0.800000 0.020000 0.000000 
 0.820000 0.020000 0.000000 
 0.840000 0.020000 0.000000 
 0.860000 0.020000 0.000000 
 0.880000 0.020000 0.000000 
 0.900000 0.020000 0.000000 
 0.920000 0.020000 0.000000 
 0.940000 0.020000 0.000000 
 0.960000 0.020000 0.000000 
 0.980000 0.020000 0.000000 
 1.000000 0.020000 0.000000 
 0.000000 0.040000 0.000000 
 0.020000 0.040000 0.000000 
 0.040000 0.040000 0.000000 
 0.060000 0.040000 0.000000 
 0.080000 0.040000 0.000000 
 0.100000 0.040000 0.000000 
 0.120000 0.040000 0.000000 
 0.140000 0.040000 0.000000 
 0.160000 0.040000 0.000000 
 0.180000 0.040000 0.000000 
 0.200000 0.040000 0.000000 
 0.220000 0.040000 0.000000 
 0.240000 0.040000 0.000000 
 0.260000 0.040000 0.000000 
 0.280000 0.040000 0.000000 
 0.300000 0.040000 0.000000 
 0.320000 0.040000 0.000000 
 0.340000 0.040000 0.000000 
 0.360000 0.040000 0.000000 
 0.380000 0.040000 0.000000 
 0.400000 0.040000 0.000000 
 0.420000 0.040000 0.000000 
 0.440000 0.040000 0.000000 
 0.460000 0.040000 0.000000 
 0.480000 0.040000 0.000000 
 0.500000 0.040000 0.000000 
 0.520000 0.040000 0.000000 
 0.540000 0.040000 0.000000 
 0.560000 0.040000 0.000000 
 0.580000 0.040000 0.000000 
 0.600000 0.040000 0.000000 
 0.620000 0.040000 0.000000 
 0.640000 0.040000 0.000000 
 0.660000 0.040000 0.000000 
 0.680000 0.040000 0.000000 
 0.700000 0.040000 0.000000 
 0.720000 0.040000 0.000000 
 0.740000 0.040000 0.000000 
 0.760000 0.040000 0.000000 
 0.780000 0.040000 0.000000 
 0.800000 0.040000 0.000000 
 0.820000 0.040000 0.000000 
 0.840000 0.040000 0.000000 
 0.860000 0.040000 0.000000 
 0.880000 0.040000 0.000000 
 0.900000 0.040000 0.000000 
 0.920000 0.040000 0.000000 
 0.940000 0.040000 0.000000 
 0.960000 0.040000 0.000000 
 0.980000 0.040000 0.000000 
 1.000000 0.040000 0.000000 
 0.000000 0.060000 0.000000 
 0.020000 0.060000 0.000000 
 0.040000 0.060000 0.000000 
 0.060000 0.060000 0.000000 
 0.080000 0.060000 0.000000 
 0.100000 0.060000 0.000000 
 0.120000 0.060000 0.000000 
 0.140000 0.060000 0.000000 
 0.160000 0.060000 0.000000 
 0.180000 0.060000 0.000000 
 0.200000 0.060000 0.000000 
 0.220000 0.060000 0.000000 
 0.240000 0.060000 0.000000 
 0.260000 0.060000 0.000000 
 0.280000 0.060000 0.000000 
 0.300000 0.060000 0.000000 
 0.320000 0.060000 0.000000 
 0.340000 0.060000 0.000000 
 0.360000 0.060000 0.000000 
 0.380000 0.060000 0.000000 
 0.400000 0.060000 0.000000 
 0.420000 0.060000 0.000000 
 0.440000 0.060000 0.000000 
 0.460000 0.060000 0.000000 
 0.480000 0.060000 0.000000 
 0.500000 0.060000 0.000000 
 0.520000 0.060000 0.000000 
 0.540000 0.060000 0.000000 
 0.560000 0.060000 0.000000 
 0.580000 0.060000 0.000000 
 0.600000 0.060000 0.000000 
 0.620000 0.060000 0.000000 
 0.640000 0.060000 0.000000 
 0.660000 0.060000 0.000000 
 0.680000 0.060000 0.000000 
 0.700000 0.060000 0.000000 
 0.720000 0.060000 0.000000 
 0.740000 0.060000 0.000000 
 0.760000 0.060000 0.000000 
 0.780000 0.060000 0.000000 
 0.800000 0.060000 0.000000 
 0.820000 0.060000 0.000000 
 0.840000 0.060000 0.000000 
 0.860000 0.060000 0.000000 
 0.880000 0.060000 0.000000 
 0.900000 0.060000 0.000000 
 0.920000 0.060000 0.000000 
 0.940000 0.060000 0.000000 
 0.960000 0.060000 0.000000 
 0.980000 0.060000 0.000000 
 1.000000 0.060000 0.000000 
 0.000000 0.080000 0.000000 
 0.020000 0.080000 0.000000 
 0.040000 0.080000 0.000000 
 0.060000 0.080000 0.000000 
 0.080000 0.080000 0.000000 
 0.100000 0.080000 0.000000 
 0.120000 0.080000 0.000000 
 0.140000 0.080000 0.000000 
 0.160000 0.080000 0.000000 
 0.180000 0.080000 0.000000 
 0.200000 0.080000 0.000000 
 0.220000 0.080000 0.000000 
 0.240000 0.080000 0.000000 
 0.260000 0.080000 0.000000 
 0.280000 0.080000 0.000000 
 0.300000 0.080000 0.000000 
 0.320000 0.080000 0.000000 
 0.340000 0.080000 0.000000 
 0.360000 0.080000 0.000000 
 0.380000 0.080000 0.000000 
 0.400000 0.080000 0.000000 
 0.420000 0.080000 0.000000 
 0.440000 0.080000 0.000000 
 0.460000 0.080000 0.000000 
 0.480000 0.080000 0.000000 
 0.500000 0.080000 0.000000 
 0.520000 0.080000 0.000000 
 0.540000 0.080000 0.000000 
 0.560000 0.080000 0.000000 
 0.580000 0.080000 0.000000 
 0.600000 0.080000 0.000000 
 0.620000 0.080000 0.000000 
 0.640000 0.080000 0.000000 
 0.660000 0.080000 0.000000 
 0.680000 0.080000 0.000000 
 0.700000 0.080000 0.000000 
 0.720000 0.080000 0.000000 
 0.740000 0.080000 0.000000 
 0.760000 0.080000 0.000000 
 0.780000 0.080000 0.000000 
 0.800000 0.080000 0.000000 
 0.820000 0.080000 0.000000 
 0.840000 0.080000 0.000000 
 0.860000 0.080000 0.000000 
 0.880000 0.080000 0.000000 
 0.900000 0.080000 0.000000 
 0.920000 0.080000 0.000000 
 0.940000 0.080000 0.000000 
 0.960000 0.080000 0.000000 
 0.980000 0.080000 0.000000 
 1.000000 0.080000 0.000000 
 0.000000 0.100000 0.000000 
 0.020000 0.100000 0.000000 
 0.040000 0.100000 0.000000 
 0.060000 0.100000 0.000000 
 0.080000 0.100000 0.000000 
 0.100000 0.100000 0.000000 
 0.120000 0.100000 0.000000 
 0.140000 0.100000 0.000000 
 0.160000 0.100000 0.000000 
 0.180000 0.100000 0.000000 
 0.200000 0.100000 0.000000 
 0.220000 0.100000 0.000000 
 0.240000 0.100000 0.000000 
 0.260000 0.100000 0.000000 
 0.280000 0.100000 0.000000 
 0.300000 0.100000 0.000000 
 0.320000 0.100000 0.000000 
 0.340000 0.100000 0.000000 
 0.360000 0.100000 0.000000 
 0.380000 0.100000 0.000000 
 0.400000 0.100000 0.000000 
 0.420000 0.100000 0.000000 
 0.440000 0.100000 0.000000 
 0.460000 0.100000 0.000000 
 0.480000 0.100000 0.000000 
 0.500000 0.100000 0.000000 
 0.520000 0.100000 0.000000 
 0.540000 0.100000 0.000000 
 0.560000 0.100000 0.000000 
 0.580000 0.100000 0.000000 
 0.600000 0.100000 0.000000 
 0.620000 0.100000 0.000000 
 0.640000 0.100000 0.000000 
 0.660000 0.100000 0.000000 
 0.680000 0.100000 0.000000 
 0.700000 0.100000 0.000000 
 0.720000 0.100000 0.000000 
 0.740000 0.100000 0.000000 
 0.760000 0.100000 0.000000 
 0.780000 0.100000 0.000000 
 0.800000 0.100000 0.000000 
 0.820000 0.100000 0.000000 
 0.840000 0.100000 0.000000 
 0.860000 0.100000 0.000000 
 0.880000 0.100000 0.000000 
 0.900000 0.100000 0.000000 
 0.920000 0.100000 0.000000 
 0.940000 0.100000 0.000000 
 0.960000 0.100000 0.000000 
 0.980000 0.100000 0.000000 
 1.000000 0.100000 0.000000 
 0.000000 0.120000 0.000000 
 0.020000 0.120000 0.000000 
 0.040000 0.120000 0.000000 
 0.060000 0.120000 0.000000 
 0.080000 0.120000 0.000000 
 0.100000 0.120000 0.000000 
 0.120000 0.120000 0.000000 
 0.140000 0.120000 0.000000 
 0.160000 0.120000 0.000000 
 0.180000 0.120000 0.000000 
 0.200000 0.120000 0.000000 
 0.220000 0.120000 0.000000 
 0.240000 0.120000 0.000000 
 0.260000 0.120000 0.000000 
 0.280000 0.120000 0.000000 
 0.300000 0.120000 0.000000 
 0.320000 0.120000 0.000000 
 0.340000 0.120000 0.000000 
 0.360000 0.120000 0.000000 
 0.380000 0.120000 0.000000 
 0.400000 0.120000 0.000000 
 0.420000 0.120000 0.000000 
 0.440000 0.120000 0.000000 
 0.460000 0.120000 0.000000 
 0.480000 0.120000 0.000000 
 0.500000 0.120000 0.000000 
 0.520000 0.120000 0.000000 
 0.540000 0.120000 0.000000 
 0.560000 0.120000 0.000000 
 0.580000 0.120000 0.000000 
 0.600000 0.120000 0.000000 
[...]
<PointData  Scalars="U"> 
<DataArray  type="Float64"  Name="U"  format="ascii"> 
 0.000000e+00
 0.000000e+00
 0.000000e+00
 0.000000e+00
 0.000000e+00
 0.000000e+00
 0.000000e+00
 0.000000e+00
 0.000000e+00
 0.000000e+00
 0.000000e+00
 0.000000e+00
 0.000000e+00
 0.000000e+00
 0.000000e+00
 0.000000e+00
 0.000000e+00
 0.000000e+00
 0.000000e+00
 0.000000e+00
 0.000000e+00
 0.000000e+00
 0.000000e+00
 0.000000e+00
 0.000000e+00
 0.000000e+00
 0.000000e+00
 0.000000e+00
 0.000000e+00
 0.000000e+00
 0.000000e+00
 0.000000e+00
 0.000000e+00
 0.000000e+00
 0.000000e+00
 0.000000e+00
 0.000000e+00
 0.000000e+00
 0.000000e+00
 0.000000e+00
 0.000000e+00
 0.000000e+00
 0.000000e+00
 0.000000e+00
 0.000000e+00
 0.000000e+00
 0.000000e+00
 0.000000e+00
 0.000000e+00
 0.000000e+00
 0.000000e+00
 0.000000e+00
 5.364393e-06
 7.221615e-06
 5.776056e-06
 4.315051e-06
 2.492677e-06
 1.438492e-06
 3.094635e-06
 -2.098711e-07
 -3.380096e-06
 -1.125600e-07
 9.597210e-06
 9.607271e-06
 1.699615e-06
 -4.530888e-06
 -3.753192e-06
 2.791314e-06
 1.092855e-05
 1.141003e-05
 1.026095e-05
 9.731998e-06
 1.048287e-05
 1.790836e-05
 1.310351e-05
 3.376696e-06
 -9.756528e-07
 -1.639769e-06
 1.814778e-06
 7.753908e-07
 -5.721351e-06
 -1.148854e-05
 -1.164463e-05
 -6.220855e-06
 -1.936676e-06
 4.921253e-08
 -2.356068e-06
 -7.305150e-06
 -6.579218e-06
 -6.531291e-06
 -8.307330e-06
 -6.405385e-06
 1.896166e-08
 7.066957e-06
 9.102538e-06
 4.688014e-06
 -6.417317e-06
 -1.144847e-05
 -5.344350e-06
 -1.218986e-06
 -2.406027e-07
 0.000000e+00
 0.000000e+00
 6.233653e-07
 3.407941e-06
 3.948703e-06
 3.505047e-06
 2.757188e-06
 2.305581e-06
 1.941083e-06
 1.074972e-06
 7.034502e-07
 2.299039e-06
 4.647401e-06
 4.743380e-06
 2.503876e-06
 5.945517e-07
 1.047789e-06
 3.775427e-06
 6.808686e-06
 8.255417e-06
 8.612324e-06
 8.779471e-06
 9.601120e-06
 1.024544e-05
 8.238890e-06
 4.562217e-06
 1.701422e-06
 5.046636e-07
 1.280425e-07
 -1.263763e-06
 -3.938883e-06
 -6.221786e-06
 -6.480862e-06
 -4.909690e-06
 -3.138931e-06
 -2.414876e-06
 -3.213007e-06
 -4.497370e-06
 -4.992697e-06
 -5.103775e-06
 -4.838489e-06
 -3.275505e-06
 -3.470586e-07
 2.396686e-06
 3.113461e-06
 1.013674e-06
 -2.482101e-06
 -4.056441e-06
 -2.381626e-06
 6.991271e-07
 3.504521e-05
 0.000000e+00
 0.000000e+00
 -7.914772e-07
 2.488929e-06
 3.179400e-06
 3.141361e-06
 2.836927e-06
 2.521254e-06
 2.221977e-06
 1.949800e-06
 2.025066e-06
 2.699044e-06
 3.489268e-06
 3.572007e-06
 2.925943e-06
 2.408502e-06
 2.801557e-06
 4.113469e-06
 5.653262e-06
 6.741618e-06
 7.308261e-06
 7.613109e-06
 7.803138e-06
 7.525243e-06
 6.258078e-06
 4.290541e-06
 2.428215e-06
 1.089866e-06
 4.101812e-08
 -1.218090e-06
 -2.728884e-06
 -3.936628e-06
 -4.294547e-06
 -3.855304e-06
 -3.200809e-06
 -2.903466e-06
 -3.145859e-06
 -3.610721e-06
 -3.879955e-06
 -3.832166e-06
 -3.363754e-06
 -2.299487e-06
 -7.962894e-07
 4.879972e-07
 8.230782e-07
 1.567510e-08
 -1.241676e-06
 -1.756858e-06
 -8.492336e-07
 2.495390e-06
 -1.700990e-05
 0.000000e+00
 0.000000e+00
 4.231170e-06
 3.055327e-06
 3.070579e-06
 3.021386e-06
 2.879716e-06
 2.708445e-06
 2.555371e-06
 2.480509e-06
 2.586000e-06
 2.893620e-06
 3.216048e-06
 3.311328e-06
 3.193144e-06
 3.159480e-06
 3.499108e-06
 4.226203e-06
 5.088005e-06
 5.801093e-06
 6.251208e-06
 6.456206e-06
 6.409218e-06
 5.986883e-06
 5.081485e-06
 3.822393e-06
 2.505401e-06
 1.326113e-06
 2.624210e-07
 -7.956112e-07
 -1.824414e-06
 -2.624451e-06
 -3.009719e-06
 -3.004951e-06
 -2.836579e-06
 -2.749544e-06
 -2.836460e-06
 -3.000766e-06
 -3.076462e-06
 -2.949013e-06
 -2.549685e-06
 -1.867476e-06
 -1.042418e-06
 -3.756279e-07
 -1.554253e-07
 -4.199992e-07
 -8.627404e-07
 -1.026657e-06
 -7.146686e-07
 -6.696515e-07
 -1.738914e-05
 0.000000e+00
 0.000000e+00
 4.500880e-06
 3.408877e-06
 3.086184e-06
 3.003232e-06
 2.945661e-06
 2.878801e-06
 2.823759e-06
 2.818811e-06
 2.899447e-06
 3.057779e-06
 3.223141e-06
 3.322708e-06
 3.372577e-06
 3.482346e-06
 3.757133e-06
 4.200340e-06
 4.708420e-06
 5.148752e-06
 5.433583e-06
 5.524108e-06
 5.388559e-06
 4.982764e-06
 4.293045e-06
 3.389555e-06
 2.400606e-06
 1.428741e-06
 5.066975e-07
 -3.649656e-07
 -1.150863e-06
 -1.769363e-06
 -2.154239e-06
 -2.320337e-06
 -2.361661e-06
 -2.384623e-06
 -2.438032e-06
 -2.493583e-06
 -2.482565e-06
 -2.343565e-06
 -2.046477e-06
 -1.611603e-06
 -1.130218e-06
 -7.468239e-07
 -5.824491e-07
 -6.453620e-07
 -8.075259e-07
 -8.848296e-07
 -7.583227e-07
 -9.828088e-08
 -2.821012e-07
 0.000000e+00
 0.000000e+00
 4.182211e-06
 3.006588e-06
 2.930989e-06
 2.985674e-06
 3.027735e-06
 3.039772e-06
 3.042662e-06
 3.063873e-06
 3.121832e-06
 3.213245e-06
 3.313891e-06
 3.402917e-06
 3.491224e-06
 3.620128e-06
 3.826174e-06
 4.104985e-06
 4.406548e-06
 4.661550e-06
 4.810697e-06
 4.813756e-06
 4.642626e-06
 4.279468e-06
 3.730133e-06
 3.036400e-06
 2.264313e-06
 1.475173e-06
 7.083336e-07
 -9.846579e-09
 -6.471610e-07
 -1.163728e-06
 -1.532849e-06
 -1.762583e-06
 -1.893864e-06
 -1.974532e-06
 -2.030476e-06
 -2.055230e-06
 -2.021902e-06
 -1.904243e-06
 -1.694065e-06
 -1.413143e-06
 -1.116634e-06
 -8.781927e-07
 -7.560509e-07
 -7.605133e-07
 -8.510741e-07
 -9.673238e-07
 -1.028790e-06
 7.012121e-08
 -1.793987e-05
 0.000000e+00
 0.000000e+00
 9.818832e-07
 2.111268e-06
 2.696098e-06
 2.998219e-06
 3.144842e-06
 3.210648e-06
 3.241790e-06
 3.268200e-06
 3.306443e-06
 3.359828e-06
 3.422554e-06
 3.490071e-06
 3.568496e-06
 3.672886e-06
 3.813828e-06
 3.983610e-06
 4.153629e-06
 4.283915e-06
 4.335723e-06
 4.278719e-06
 4.092655e-06
 3.769182e-06
 3.316278e-06
 2.760389e-06
 2.140511e-06
 1.496805e-06
 8.628798e-07
 2.664751e-07
 -2.663747e-07
 -7.121182e-07
 -1.057114e-06
 -1.304507e-06
 -1.472413e-06
 -1.583053e-06
 -1.650463e-06
 -1.675240e-06
 -1.648724e-06
 -1.562611e-06
 -1.418515e-06
 -1.234004e-06
 -1.042425e-06
 -8.843418e-07
 -7.933597e-07
 -7.864315e-07
 -8.712570e-07
 -1.078378e-06
 -1.537084e-06
 -3.243875e-06
 -1.844348e-05
 0.000000e+00
 0.000000e+00
 -1.098708e-06
 1.685328e-06
 2.731276e-06
 3.157367e-06
 3.338467e-06
 3.413744e-06
 3.443504e-06
 3.458354e-06
 3.474164e-06
 3.497284e-06
 3.528568e-06
 3.568200e-06
 3.619069e-06
 3.685670e-06
 3.768770e-06
 3.860021e-06
 3.940848e-06
 3.986343e-06
 3.971220e-06
 3.874605e-06
 3.682871e-06
 3.391682e-06
 3.007687e-06
 2.548437e-06
 2.039155e-06
 1.507563e-06
 9.797967e-07
 4.790641e-07
 2.564298e-08
 -3.643398e-07
 -6.817722e-07
 -9.266418e-07
 -1.106639e-06
 -1.232265e-06
 -1.311385e-06
 -1.346620e-06
 -1.336893e-06
 -1.281795e-06
 -1.186264e-06
 -1.063336e-06
 -9.334476e-07
 -8.201075e-07
 -7.443661e-07
 -7.236203e-07
 -7.821368e-07
 -9.816011e-07
 -1.476497e-06
 -2.386048e-06
 1.642031e-05
 0.000000e+00
 0.000000e+00
 2.256690e-07
 2.676383e-06
 3.288703e-06
 3.529658e-06
 3.627209e-06
 3.658170e-06
 3.657888e-06
 3.645966e-06
 3.633619e-06
 3.626499e-06
 3.626828e-06
 3.635498e-06
 3.653294e-06
 3.680294e-06
 3.713699e-06
 3.745743e-06
 3.763385e-06
 3.750187e-06
 3.689436e-06
 3.567158e-06
 3.374422e-06
 3.108906e-06
 2.775697e-06
 2.386893e-06
 1.959749e-06
 1.513965e-06
 1.069237e-06
 6.437118e-07
 2.530332e-07
 -9.074013e-08
 -3.803904e-07
 -6.141363e-07
 -7.947030e-07
 -9.269823e-07
 -1.015493e-06
 -1.063066e-06
 -1.071380e-06
 -1.042861e-06
 -9.827582e-07
 -9.001903e-07
 -8.074007e-07
 -7.173413e-07
 -6.409771e-07
 -5.869484e-07
 -5.672809e-07
 -6.159408e-07
 -8.445892e-07
 -2.427795e-06
 -6.510239e-07
 0.000000e+00
 0.000000e+00
 6.941001e-06
 4.586681e-06
 4.141900e-06
 4.027823e-06
 3.977119e-06
 3.931584e-06
 3.882606e-06
 3.833084e-06
 3.787267e-06
 3.748066e-06
 3.716789e-06
 3.693602e-06
 3.677835e-06
 3.667629e-06
 3.659038e-06
 3.645269e-06
 3.616719e-06
 3.562067e-06
 3.470036e-06
 3.331291e-06
 3.140022e-06
 2.895034e-06
 2.600190e-06
 2.264088e-06
 1.898949e-06
 1.519036e-06
 1.139064e-06
 7.729254e-07
 4.326932e-07
 1.277826e-07
 -1.357089e-07
 -3.551779e-07
 -5.309543e-07
 -6.651290e-07
 -7.603055e-07
 -8.188893e-07
 -8.432027e-07
 -8.362112e-07
 -8.022902e-07
 -7.473983e-07
 -6.782307e-07
 -6.003323e-07
 -5.155107e-07
 -4.188164e-07
 -2.941748e-07
 -1.047778e-07
 2.269901e-07
 4.202821e-07
 3.511881e-05
 0.000000e+00
 0.000000e+00
 8.277691e-06
 5.450140e-06
 4.770531e-06
 4.486863e-06
 4.327854e-06
 4.209805e-06
 4.107934e-06
 4.016221e-06
 3.934010e-06
 3.861526e-06
 3.798541e-06
 3.744104e-06
 3.696467e-06
 3.652847e-06
 3.609058e-06
 3.559266e-06
 3.496163e-06
 3.411657e-06
 3.297952e-06
 3.148733e-06
 2.960209e-06
 2.731829e-06
 2.466560e-06
 2.170660e-06
 1.852990e-06
 1.524017e-06
 1.194754e-06
 8.757852e-07
 5.764652e-07
 3.042815e-07
 6.444177e-08
 -1.402082e-07
 -3.088759e-07
 -4.422156e-07
 -5.416779e-07
 -6.090890e-07
 -6.465830e-07
 -6.567843e-07
 -6.429473e-07
 -6.087095e-07
 -5.571759e-07
 -4.891443e-07
 -4.001849e-07
 -2.755362e-07
 -7.920566e-08
 2.752521e-07
 1.027014e-06
 3.649902e-06
 9.359413e-07
 0.000000e+00
 0.000000e+00
 4.443193e-06
 5.296467e-06
 5.084554e-06
 4.845820e-06
 4.645578e-06
 4.474382e-06
 4.323792e-06
 4.189929e-06
 4.070927e-06
 3.965364e-06
 3.871618e-06
 3.787640e-06
 3.710843e-06
 3.637946e-06
 3.564818e-06
 3.486434e-06
 3.397055e-06
 3.290698e-06
 3.161813e-06
 3.006034e-06
 2.820852e-06
 2.606074e-06
 2.364002e-06
 2.099273e-06
 1.818419e-06
 1.529214e-06
 1.239939e-06
 9.586792e-07
 6.927118e-07
 4.480308e-07
 2.290516e-07
 3.853663e-08
 -1.222512e-07
 -2.532310e-07
 -3.551453e-07
 -4.292881e-07
 -4.773722e-07
 -5.014788e-07
 -5.039399e-07
 -4.869612e-07
 -4.517990e-07
 -3.972929e-07
 -3.174014e-07
 -1.968857e-07
 -3.266606e-09
 3.272689e-07
 8.942953e-07
 1.378417e-06
 -1.662202e-05
 0.000000e+00
 0.000000e+00
 5.702118e-06
 5.475274e-06
 5.366366e-06
 5.162075e-06
 4.935366e-06
 4.719141e-06
 4.523217e-06
 4.348825e-06
 4.194361e-06
 4.057313e-06
 3.934835e-06
 3.823882e-06
 3.721176e-06
 3.623119e-06
 3.525708e-06
 3.424549e-06
 3.314995e-06
 3.192467e-06
 3.052883e-06
 2.893134e-06
 2.711514e-06
 2.508013e-06
 2.284421e-06
 2.044219e-06
 1.792285e-06
 1.534445e-06
 1.276970e-06
 1.026062e-06
 7.874026e-07
 5.657960e-07
 3.649422e-07
 1.873564e-07
 3.443078e-08
 -9.339937e-08
 -1.964511e-07
 -2.756092e-07
 -3.321880e-07
 -3.678100e-07
 -3.842314e-07
 -3.830193e-07
 -3.649988e-07
 -3.293908e-07
 -2.725569e-07
 -1.862748e-07
 -5.585042e-08
 1.399185e-07
 4.286221e-07
 2.008877e-06
 4.525363e-07
 0.000000e+00
 0.000000e+00
 6.222857e-06
 5.847257e-06
 5.739379e-06
 5.492640e-06
 5.211221e-06
 4.942410e-06
 4.700728e-06
 4.487670e-06
 4.300335e-06
 4.134663e-06
 3.986491e-06
 3.851822e-06
 3.726791e-06
 3.607574e-06
 3.490303e-06
 3.371065e-06
 3.245991e-06
 3.111457e-06
 2.964354e-06
 2.802392e-06
 2.624363e-06
 2.430332e-06
 2.221685e-06
 2.001060e-06
 1.772129e-06
 1.539299e-06
 1.307345e-06
 1.081047e-06
 8.648521e-07
 6.626069e-07
 4.773749e-07
 3.113552e-07
 1.658928e-07
 4.156072e-08
 -6.172128e-08
 -1.445626e-07
 -2.079867e-07
 -2.533171e-07
 -2.820410e-07
 -2.956294e-07
 -2.953235e-07
 -2.819622e-07
 -2.560492e-07
 -2.185333e-07
 -1.734732e-07
 -1.364739e-07
 -1.734528e-07
 -1.141991e-06
 -3.505829e-05
 0.000000e+00
 0.000000e+00
 5.528048e-06
 6.505512e-06
 6.243187e-06
 5.846928e-06
 5.469479e-06
 5.136693e-06
 4.849017e-06
 4.600649e-06
 4.384651e-06
 4.194543e-06
 4.024670e-06
 3.870130e-06
 3.726585e-06
 3.590071e-06
 3.456868e-06
 3.323454e-06
 3.186533e-06
 3.043153e-06
 2.890869e-06
 2.727930e-06
 2.553441e-06
 2.367476e-06
 2.171104e-06
 1.966329e-06
 1.755936e-06
 1.543276e-06
 1.332007e-06
 1.125826e-06
 9.282188e-07
 7.422576e-07
 5.704511e-07
 4.146670e-07
 2.761155e-07
 1.553829e-07
 5.249894e-08
 -3.298389e-08
 -1.019077e-07
 -1.554292e-07
 -1.949473e-07
 -2.220610e-07
 -2.386307e-07
 -2.471148e-07
 -2.515439e-07
 -2.598182e-07
 -2.882523e-07
 -3.668496e-07
 -5.185690e-07
 2.226443e-07
 1.713180e-05
 0.000000e+00
 0.000000e+00
 9.844540e-06
 7.755405e-06
 6.807865e-06
 6.169693e-06
 5.680097e-06
 5.285074e-06
 4.957887e-06
 4.681362e-06
 4.443225e-06
 4.234318e-06
 4.047608e-06
 3.877504e-06
 3.719386e-06
 3.569286e-06
 3.423682e-06
 3.279406e-06
 3.133618e-06
 2.983869e-06
 2.828185e-06
 2.665182e-06
 2.494164e-06
 2.315185e-06
 2.129060e-06
 1.937311e-06
 1.742060e-06
 1.545867e-06
 1.351545e-06
 1.161959e-06
 9.798445e-07
 8.076447e-07
 6.473936e-07
 5.006417e-07
 3.684259e-07
 2.512771e-07
 1.492523e-07
 6.198345e-08
 -1.127063e-08
 -7.157566e-08
 -1.202948e-07
 -1.591201e-07
 -1.902508e-07
 -2.169016e-07
 -2.445183e-07
 -2.834800e-07
 -3.550851e-07
 -5.056552e-07
 -8.391794e-07
 -1.459910e-06
 -3.552153e-05
 0.000000e+00
 0.000000e+00
 1.202786e-05
 8.306700e-06
 7.117202e-06
 6.356222e-06
 5.799538e-06
 5.366970e-06
 5.016856e-06
 4.724192e-06
 4.472912e-06
 4.252133e-06
 4.054099e-06
 3.872995e-06
 3.704241e-06
 3.544059e-06
 3.389224e-06
 3.236930e-06
 3.084744e-06
 2.930617e-06
 2.772934e-06
 2.610575e-06
 2.442976e-06
 2.270160e-06
 2.092739e-06
 1.911870e-06
 1.729168e-06
 1.546597e-06
 1.366323e-06
 1.190572e-06
 1.021486e-06
 8.610013e-07
 7.107504e-07
 5.719950e-07
 4.455903e-07
 3.319760e-07
 2.311878e-07
 1.428824e-07
 6.636925e-08
 6.407138e-10
 -5.561209e-08
 -1.040251e-07
 -1.466852e-07
 -1.864648e-07
 -2.277774e-07
 -2.781568e-07
 -3.517126e-07
 -4.804767e-07
 -7.882073e-07
 -3.069539e-06
 1.680718e-05
 0.000000e+00
 0.000000e+00
 7.454457e-06
 7.879046e-06
 7.075752e-06
 6.353738e-06
 5.800042e-06
 5.368930e-06
 5.019775e-06
 4.726459e-06
 4.472598e-06
 4.247513e-06
 4.043856e-06
 3.856267e-06
 3.680613e-06
 3.513554e-06
 3.352285e-06
 3.194410e-06
 3.037883e-06
 2.881006e-06
 2.722452e-06
 2.561308e-06
 2.397104e-06
 2.229832e-06
 2.059946e-06
 1.888318e-06
 1.716181e-06
 1.545039e-06
 1.376564e-06
 1.212484e-06
 1.054474e-06
 9.040616e-07
 7.625433e-07
 6.309277e-07
 5.098964e-07
 3.997854e-07
 3.005826e-07
 2.119366e-07
 1.331753e-07
 6.332933e-08
 1.161010e-09
 -5.480291e-08
 -1.062360e-07
 -1.549729e-07
 -2.029418e-07
 -2.518673e-07
 -3.012411e-07
 -3.334114e-07
 -1.980818e-07
 2.383941e-06
 1.739598e-05
 0.000000e+00
 0.000000e+00
 9.569881e-06
 7.875279e-06
 6.850553e-06
 6.174686e-06
 5.680660e-06
 5.291495e-06
 4.968423e-06
 4.690175e-06
 4.444033e-06
 4.221783e-06
 4.017743e-06
 3.827729e-06
 3.648478e-06
 3.477324e-06
 3.312010e-06
 3.150600e-06
 2.991435e-06
 2.833138e-06
 2.674636e-06
 2.515179e-06
 2.354375e-06
 2.192191e-06
 2.028954e-06
 1.865320e-06
 1.702226e-06
 1.540824e-06
 1.382402e-06
 1.228300e-06
 1.079827e-06
 9.381789e-07
 8.043785e-07
 6.792182e-07
 5.632239e-07
 4.566300e-07
 3.593667e-07
 2.710566e-07
 1.910213e-07
 1.183009e-07
 5.169626e-08
 -1.013869e-08
 -6.850192e-08
 -1.242404e-07
 -1.769622e-07
 -2.236540e-07
 -2.569184e-07
 -2.668965e-07
 -2.846046e-07
 -1.555593e-06
 -3.501328e-05
 0.000000e+00
 0.000000e+00
 1.145536e-05
 7.211529e-06
 6.309301e-06
 5.826683e-06
 5.462090e-06
 5.150594e-06
 4.873555e-06
 4.622484e-06
 4.391974e-06
 4.178080e-06
 3.977752e-06
 3.788522e-06
 3.608312e-06
 3.435304e-06
 3.267878e-06
 3.104590e-06
 2.944167e-06
 2.785532e-06
 2.627832e-06
 2.470460e-06
 2.313086e-06
 2.155658e-06
 1.998407e-06
 1.841819e-06
 1.686603e-06
 1.533637e-06
 1.383914e-06
 1.238470e-06
 1.098324e-06
 9.644103e-07
 8.375286e-07
 7.182937e-07
 6.070999e-07
 5.040927e-07
 4.091472e-07
 3.218541e-07
 2.415114e-07
 1.671296e-07
 9.746444e-08
 3.111863e-08
 -3.320347e-08
 -9.610693e-08
 -1.562501e-07
 -2.079523e-07
 -2.378457e-07
 -2.265888e-07
 -1.946691e-07
 -3.217362e-07
 3.482765e-05
 0.000000e+00
 0.000000e+00
 3.665850e-06
 5.276192e-06
 5.479769e-06
 5.385732e-06
 5.195431e-06
 4.976420e-06
 4.753136e-06
 4.534457e-06
 4.323444e-06
 4.120907e-06
 3.926723e-06
 3.740339e-06
 3.560976e-06
 3.387728e-06
 3.219638e-06
 3.055747e-06
 2.895148e-06
 2.737034e-06
 2.580744e-06
 2.425792e-06
 2.271896e-06
 2.118993e-06
 1.967235e-06
 1.816976e-06
 1.668746e-06
 1.523215e-06
 1.381143e-06
 1.243329e-06
 1.110564e-06
 9.835791e-07
 8.629950e-07
 7.492863e-07
 6.427443e-07
 5.434458e-07
 4.512263e-07
 3.656525e-07
 2.859966e-07
 2.112120e-07
 1.399218e-07
 7.044971e-08
 9.684306e-10
 -7.005277e-08
 -1.426562e-07
 -2.123444e-07
 -2.621331e-07
 -2.396477e-07
 2.811623e-08
 1.388008e-06
 -1.735985e-05
 0.000000e+00
 0.000000e+00
 1.062767e-06
 4.094866e-06
 4.888361e-06
 5.023957e-06
 4.951525e-06
 4.804324e-06
 4.627285e-06
 4.438442e-06
 4.246302e-06
 4.055314e-06
 3.867859e-06
 3.685117e-06
 3.507514e-06
 3.334996e-06
 3.167209e-06
 3.003628e-06
 2.843666e-06
 2.686743e-06
 2.532353e-06
 2.380103e-06
 2.229751e-06
 2.081217e-06
 1.934592e-06
 1.790125e-06
 1.648208e-06
 1.509343e-06
 1.374110e-06
 1.243128e-06
 1.117008e-06
 9.963219e-07
 8.815551e-07
 7.730767e-07
 6.711047e-07
 5.756755e-07
 4.866104e-07
 4.034795e-07
 3.255545e-07
 2.517474e-07
 1.805285e-07
 1.098214e-07
 3.688375e-08
 -4.177337e-08
 -1.302135e-07
 -2.318479e-07
 -3.442203e-07
 -4.400408e-07
 -4.136325e-07
 2.237877e-07
 -7.376891e-08
 0.000000e+00
 0.000000e+00
 3.614076e-06
 4.646642e-06
 4.808452e-06
 4.830473e-06
 4.771131e-06
 4.658492e-06
 4.511903e-06
 4.345122e-06
 4.167689e-06
 3.985999e-06
 3.804162e-06
 3.624676e-06
 3.448919e-06
 3.277507e-06
 3.110561e-06
 2.947894e-06
 2.789158e-06
 2.633940e-06
 2.481845e-06
 2.332544e-06
 2.185815e-06
 2.041560e-06
 1.899815e-06
 1.760744e-06
 1.624630e-06
 1.491844e-06
 1.362828e-06
 1.238056e-06
 1.118006e-06
 1.003125e-06
 8.938017e-07
 7.903301e-07
 6.928869e-07
 6.014991e-07
 5.160111e-07
 4.360413e-07
 3.609217e-07
 2.896040e-07
 2.205118e-07
 1.512943e-07
 7.840100e-08
 -3.686283e-09
 -1.039054e-07
 -2.374552e-07
 -4.313290e-07
 -7.335559e-07
 -1.211244e-06
 -1.423265e-06
 -1.822396e-05
 0.000000e+00
 0.000000e+00
 9.344514e-06
 5.470960e-06
 4.850451e-06
 4.715547e-06
 4.642784e-06
 4.545699e-06
 4.416014e-06
 4.261935e-06
 4.092960e-06
 3.916564e-06
 3.737930e-06
 3.560384e-06
 3.385898e-06
 3.215503e-06
 3.049606e-06
 2.888221e-06
 2.731134e-06
 2.578027e-06
 2.428561e-06
 2.282435e-06
 2.139427e-06
 1.999414e-06
 1.862382e-06
 1.728424e-06
 1.597733e-06
 1.470582e-06
 1.347301e-06
 1.228256e-06
 1.113823e-06
 1.004357e-06
 9.001762e-07
 8.015305e-07
 7.085835e-07
 6.213859e-07
 5.398464e-07
 4.636912e-07
 3.924014e-07
 3.251106e-07
 2.604294e-07
 1.961326e-07
 1.285778e-07
 5.156085e-08
 -4.610609e-08
 -1.862028e-07
 -4.154248e-07
 -8.458638e-07
 -1.783932e-06
 -4.911883e-06
 -1.367430e-06
 0.000000e+00
 0.000000e+00
 5.726296e-06
 4.664987e-06
 4.577323e-06
 4.577793e-06
 4.548022e-06
 4.467318e-06
 4.344492e-06
 4.193241e-06
 4.025258e-06
 3.849060e-06
 3.670387e-06
 3.492878e-06
 3.318683e-06
 3.148937e-06
 2.984104e-06
 2.824232e-06
 2.669127e-06
 2.518480e-06
 2.371950e-06
 2.229226e-06
 2.090064e-06
 1.954306e-06
 1.821890e-06
 1.692851e-06
 1.567308e-06
 1.445455e-06
 1.327540e-06
 1.213844e-06
 1.104665e-06
 1.000294e-06
 9.010005e-07
 8.070137e-07
 7.185074e-07
 6.355847e-07
 5.582577e-07
 4.864197e-07
 4.197984e-07
 3.578751e-07
 2.997403e-07
 2.438331e-07
 1.874611e-07
 1.258922e-07
 5.054958e-08
 -5.488164e-08
 -2.238996e-07
 -5.334230e-07
 -1.185462e-06
 -3.703911e-06
 3.383049e-05
 0.000000e+00
 0.000000e+00
 2.987667e-07
 3.488546e-06
 4.253519e-06
 4.484399e-06
 4.507942e-06
 4.431457e-06
 4.300934e-06
 4.140719e-06
 3.965303e-06
 3.783683e-06
 3.601434e-06
 3.421891e-06
 3.246912e-06
 3.077389e-06
 2.913602e-06
 2.755458e-06
 2.602659e-06
 2.454820e-06
 2.311544e-06
 2.172470e-06
 2.037313e-06
 1.905871e-06
 1.778037e-06
 1.653792e-06
 1.533202e-06
 1.416397e-06
 1.303561e-06
 1.194914e-06
 1.090694e-06
 9.911465e-07
 8.965093e-07
 8.070046e-07
 7.228330e-07
 6.441682e-07
 5.711532e-07
 5.038921e-07
 4.424355e-07
 3.867481e-07
 3.366457e-07
 2.916806e-07
 2.509505e-07
 2.128344e-07
 1.747987e-07
 1.339866e-07
 9.136402e-08
 6.954936e-08
 1.822370e-07
 3.350739e-07
 3.495134e-05
 0.000000e+00
 0.000000e+00
 2.082019e-06
 3.622904e-06
 4.357918e-06
 4.571946e-06
 4.559923e-06
 4.446587e-06
 4.285581e-06
 4.102535e-06
 3.911001e-06
 3.718574e-06
 3.529537e-06
 3.346184e-06
 3.169585e-06
 3.000047e-06
 2.837425e-06
 2.681324e-06
 2.531230e-06
 2.386606e-06
 2.246946e-06