<VTKFile type="UnstructuredGrid"  version="0.1"   >
<UnstructuredGrid>  
<Piece  NumberOfPoints="     2601"  NumberOfCells="     5000">  
<Points>  
<DataArray  type="Float64"  NumberOfComponents="3"  format="ascii">  
 0.000000 0.000000 0.000000 
 0.020000 0.000000 0.000000 
 0.040000 0.000000 0.000000 
 0.060000 0.000000 0.000000 
 0.080000 0.000000 0.000000 
 0.100000 0.000000 0.000000 
 0.120000 0.000000 0.000000 
 0.140000 0.000000 0.000000 
 0.160000 0.000000 0.000000 
 0.180000 0.000000 0.000000 
 0.200000 0.000000 0.000000 
 0.220000 0.000000 0.000000 
 0.240000 0.000000 0.000000 
 0.260000 0.000000 0.000000 
 0.280000 0.000000 0.000000 
 0.300000 0.000000 0.000000 
 0.320000 0.000000 0.000000 
 0.340000 0.000000 0.000000 
 0.360000 0.000000 0.000000 
 0.380000 0.000000 0.000000 
 0.400000 0.000000 0.000000 
 0.420000 0.000000 0.000000 
 0.440000 0.000000 0.000000 
 0.460000 0.000000 0.000000 
 0.480000 0.000000 0.000000 
 0.500000 0.000000 0.000000 
 0.520000 0.000000 0.000000 
 0.540000 0.000000 0.000000 
 0.560000 0.000000 0.000000 
 0.580000 0.000000 0.000000 
 0.600000 0.000000 0.000000 
 0.620000 0.000000 0.000000 
 0.640000 0.000000 0.000000 
 0.660000 0.000000 0.000000 
 0.680000 0.000000 0.000000 
 0.700000 0.000000 0.000000 
 0.720000 0.000000 0.000000 
 0.740000 0.000000 0.000000 
 0.760000 0.000000 0.000000 
 0.780000 0.000000 0.000000 
 0.800000 0.000000 0.000000 
 0.820000 0.000000 0.000000 
 0.840000 0.000000 0.000000 
 0.860000 0.000000 0.000000 
 0.880000 0.000000 0.000000 
 0.900000 0.000000 0.000000 
 0.920000 0.000000 0.000000 
 0.940000 0.000000 0.000000 
 0.960000 0.000000 0.000000 
 0.980000 0.000000 0.000000 
 1.000000 0.000000 0.000000 
 0.000000 0.020000 0.000000 
 0.020000 0.020000 0.000000 
 0.040000 0.020000 0.000000 
 0.060000 0.020000 0.000000 
 0.080000 0.020000 0.000000 
 0.100000 0.020000 0.000000 
 0.120000 0.020000 0.000000 
 0.140000 0.020000 0.000000 
 0.160000 0.020000 0.000000 
 0.180000 0.020000 0.000000 
 0.200000 0.020000 0.000000 
 0.220000 0.020000 0.000000 
 0.240000 0.020000 0.000000 
 0.260000 0.020000 0.000000 
 0.280000 0.020000 0.000000 
 0.300000 0.020000 0.000000 
 0.320000 0.020000 0.000000 
 0.340000 0.020000 0.000000 
 0.360000 0.020000 0.000000 
 0.380000 0.020000 0.000000 
 0.400000 0.020000 0.000000 
 0.420000 0.020000 0.000000 
 0.440000 0.020000 0.000000 
 0.460000 0.020000 0.000000 
 0.480000 0.020000 0.000000 
 0.500000 0.020000 0.000000 
 0.520000 0.020000 0.000000 
 0.540000 0.020000 0.000000 
 0.560000 0.020000 0.000000 
 0.580000 0.020000 0.000000 
 0.600000 0.020000 0.000000 
 0.620000 0.020000 0.000000 
 0.640000 0.020000 0.000000 
 0.660000 0.020000 0.000000 
 0.680000 0.020000 0.000000 
 0.700000 0.020000 0.000000 
 0.720000 0.020000 0.000000 
 0.740000 0.020000 0.000000 
 0.760000 0.020000 0.000000 
 0.780000 0.020000 0.000000 
 0.800000 0.020000 0.000000 
 0.820000 0.020000 0.000000 
 0.840000 0.020000 0.000000 
 0.860000 0.020000 0.000000 
 0.880000 0.020000 0.000000 
 0.900000 0.020000 0.000000 
 0.920000 0.020000 0.000000 
 0.940000 0.020000 0.000000 
 0.960000 0.020000 0.000000 
 0.980000 0.020000 0.000000 
 1.000000 0.020000 0.000000 
 0.000000 0.040000 0.000000 
 0.020000 0.040000 0.000000 
 0.040000 0.040000 0.000000 
 0.060000 0.040000 0.000000 
 0.080000 0.040000 0.000000 
 0.100000 0.040000 0.000000 
 0.120000 0.040000 0.000000 
 0.140000 0.040000 0.000000 
 0.160000 0.040000 0.000000 
 0.180000 0.040000 0.000000 
 0.200000 0.040000 0.000000 
 0.220000 0.040000 0.000000 
 0.240000 0.040000 0.000000 
 0.260000 0.040000 0.000000 
 0.280000 0.040000 0.000000 
 0.300000 0.040000 0.000000 
 0.320000 0.040000 0.000000 
 0.340000 0.040000 0.000000 
 0.360000 0.040000 0.000000 
 0.380000 0.040000 0.000000 
 0.400000 0.040000 0.000000 
 0.420000 0.040000 0.000000 
 0.440000 0.040000 0.000000 
 0.460000 0.040000 0.000000 
 0.480000 0.040000 0.000000 
 0.500000 0.040000 0.000000 
 0.520000 0.040000 0.000000 
 0.540000 0.040000 0.000000 
 0.560000 0.040000 0.000000 
 0.580000 0.040000 0.000000 
 0.600000 0.040000 0.000000 
 0.620000 0.040000 0.000000 
 0.640000 0.040000 0.000000 
 0.660000 0.040000 0.000000 
 0.680000 0.040000 0.000000 
 0.700000 0.040000 0.000000 
 0.720000 0.040000 0.000000 
 0.740000 0.040000 0.000000 
 0.760000 0.040000 0.000000 
 0.780000 0.040000 0.000000 
 0.800000 0.040000 0.000000 
 0.820000 0.040000 0.000000 
 0.840000 0.040000 0.000000 
 0.860000 0.040000 0.000000 
 0.880000 0.040000 0.000000 
 0.900000 0.040000 0.000000 
 0.920000 0.040000 0.000000 
 0.940000 0.040000 0.000000 
 0.960000 0.040000 0.000000 
 0.980000 0.040000 0.000000 
 1.000000 0.040000 0.000000 
 0.000000 0.060000 0.000000 
 0.020000 0.060000 0.000000 
 0.040000 0.060000 0.000000 
 0.060000 0.060000 0.000000 
 0.080000 0.060000 0.000000 
 0.100000 0.060000 0.000000 
 0.120000 0.060000 0.000000 
 0.140000 0.060000 0.000000 
 0.160000 0.060000 0.000000 
 0.180000 0.060000 0.000000 
 0.200000 0.060000 0.000000 
 0.220000 0.060000 0.000000 
 0.240000 0.060000 0.000000 
 0.260000 0.060000 0.000000 
 0.280000 0.060000 0.000000 
 0.300000 0.060000 0.000000 
 0.320000 0.060000 0.000000 
 0.340000 0.060000 0.000000 
 0.360000 0.060000 0.000000 
 0.380000 0.060000 0.000000 
 0.400000 0.060000 0.000000 
 0.420000 0.060000 0.000000 
 0.440000 0.060000 0.000000 
 0.460000 0.060000 0.000000 
 0.480000 0.060000 0.000000 
 0.500000 0.060000 0.000000 
 0.520000 0.060000 0.000000 
 0.540000 0.060000 0.000000 
 0.560000 0.060000 0.000000 
 0.580000 0.060000 0.000000 
 0.600000 0.060000 0.000000 
 0.620000 0.060000 0.000000 
 0.640000 0.060000 0.000000 
 0.660000 0.060000 0.000000 
 0.680000 0.060000 0.000000 
 0.700000 0.060000 0.000000 
 0.720000 0.060000 0.000000 
 0.740000 0.060000 0.000000 
 0.760000 0.060000 0.000000 
 0.780000 0.060000 0.000000 
 0.800000 0.060000 0.000000 
 0.820000 0.060000 0.000000 
 0.840000 0.060000 0.000000 
 0.860000 0.060000 0.000000 
 0.880000 0.060000 0.000000 
 0.900000 0.060000 0.000000 
 0.920000 0.060000 0.000000 
 0.940000 0.060000 0.000000 
 0.960000 0.060000 0.000000 
 0.980000 0.060000 0.000000 
 1.000000 0.060000 0.000000 
 0.000000 0.080000 0.000000 
 0.020000 0.080000 0.000000 
 0.040000 0.080000 0.000000 
 0.060000 0.080000 0.000000 
 0.080000 0.080000 0.000000 
 0.100000 0.080000 0.000000 
 0.120000 0.080000 0.000000 
 0.140000 0.080000 0.000000 
 0.160000 0.080000 0.000000 
 0.180000 0.080000 0.000000 
 0.200000 0.080000 0.000000 
 0.220000 0.080000 0.000000 
 0.240000 0.080000 0.000000 
 0.260000 0.080000 0.000000 
 0.280000 0.080000 0.000000 
 0.300000 0.080000 0.000000 
 0.320000 0.080000 0.000000 
 0.340000 0.080000 0.000000 
 0.360000 0.080000 0.000000 
 0.380000 0.080000 0.000000 
 0.400000 0.080000 0.000000 
 0.420000 0.080000 0.000000 
 0.440000 0.080000 0.000000 
 0.460000 0.080000 0.000000 
 0.480000 0.080000 0.000000 
 0.500000 0.080000 0.000000 
 0.520000 0.080000 0.000000 
 0.540000 0.080000 0.000000 
 0.560000 0.080000 0.000000 
 0.580000 0.080000 0.000000 
 0.600000 0.080000 0.000000 
 0.620000 0.080000 0.000000 
 0.640000 0.080000 0.000000 
 0.660000 0.080000 0.000000 
 0.680000 0.080000 0.000000 
 0.700000 0.080000 0.000000 
 0.720000 0.080000 0.000000 
 0.740000 0.080000 0.000000 
 0.760000 0.080000 0.000000 
 0.780000 0.080000 0.000000 
 0.800000 0.080000 0.000000 
 0.820000 0.080000 0.000000 
 0.840000 0.080000 0.000000 
 0.860000 0.080000 0.000000 
 0.880000 0.080000 0.000000 
 0.900000 0.080000 0.000000 
 0.920000 0.080000 0.000000 
 0.940000 0.080000 0.000000 
 0.960000 0.080000 0.000000 
 0.980000 0.080000 0.000000 
 1.000000 0.080000 0.000000 
 0.000000 0.100000 0.000000 
 0.020000 0.100000 0.000000 
 0.040000 0.100000 0.000000 
 0.060000 0.100000 0.000000 
 0.080000 0.100000 0.000000 
 0.100000 0.100000 0.000000 
 0.120000 0.100000 0.000000 
 0.140000 0.100000 0.000000 
 0.160000 0.100000 0.000000 
 0.180000 0.100000 0.000000 
 0.200000 0.100000 0.000000 
 0.220000 0.100000 0.000000 
 0.240000 0.100000 0.000000 
 0.260000 0.100000 0.000000 
 0.280000 0.100000 0.000000 
 0.300000 0.100000 0.000000 
 0.320000 0.100000 0.000000 
 0.340000 0.100000 0.000000 
 0.360000 0.100000 0.000000 
 0.380000 0.100000 0.000000 
 0.400000 0.100000 0.000000 
 0.420000 0.100000 0.000000 
 0.440000 0.100000 0.000000 
 0.460000 0.100000 0.000000 
 0.480000 0.100000 0.000000 
 0.500000 0.100000 0.000000 
 0.520000 0.100000 0.000000 
 0.540000 0.100000 0.000000 
 0.560000 0.100000 0.000000 
 0.580000 0.100000 0.000000 
 0.600000 0.100000 0.000000 
 0.620000 0.100000 0.000000 
 0.640000 0.100000 0.000000 
 0.660000 0.100000 0.000000 
 0.680000 0.100000 0.000000 
 0.700000 0.100000 0.000000 
 0.720000 0.100000 0.000000 
 0.740000 0.100000 0.000000 
 0.760000 0.100000 0.000000 
 0.780000 0.100000 0.000000 
 0.800000 0.100000 0.000000 
 0.820000 0.100000 0.000000 
 0.840000 0.100000 0.000000 
 0.860000 0.100000 0.000000 
 0.880000 0.100000 0.000000 
 0.900000 0.100000 0.000000 
 0.920000 0.100000 0.000000 
 0.940000 0.100000 0.000000 
 0.960000 0.100000 0.000000 
 0.980000 0.100000 0.000000 
 1.000000 0.100000 0.000000 
 0.000000 0.120000 0.000000 
 0.020000 0.120000 0.000000 
 0.040000 0.120000 0.000000 
 0.060000 0.120000 0.000000 
 0.080000 0.120000 0.000000 
 0.100000 0.120000 0.000000 
 0.120000 0.120000 0.000000 
 0.140000 0.120000 0.000000 
 0.160000 0.120000 0.000000 
 0.180000 0.120000 0.000000 
 0.200000 0.120000 0.000000 
 0.220000 0.120000 0.000000 
 0.240000 0.120000 0.000000 
 0.260000 0.120000 0.000000 
 0.280000 0.120000 0.000000 
 0.300000 0.120000 0.000000 
 0.320000 0.120000 0.000000 
 0.340000 0.120000 0.000000 
 0.360000 0.120000 0.000000 
 0.380000 0.120000 0.000000 
 0.400000 0.120000 0.000000 
 0.420000 0.120000 0.000000 
 0.440000 0.120000 0.000000 
 0.460000 0.120000 0.000000 
 0.480000 0.120000 0.000000 
 0.500000 0.120000 0.000000 
 0.520000 0.120000 0.000000 
 0.540000 0.120000 0.000000 
 0.560000 0.120000 0.000000 
 0.580000 0.120000 0.000000 
 0.600000 0.120000 0.000000 
[...]
<PointData  Scalars="U"> 
<DataArray  type="Float64"  Name="U"  format="ascii"> 
 0.000000e+00
 0.000000e+00
 0.000000e+00
 0.000000e+00
 0.000000e+00
 0.000000e+00
 0.000000e+00
 0.000000e+00
 0.000000e+00
 0.000000e+00
 0.000000e+00
 0.000000e+00
 0.000000e+00
 0.000000e+00
 0.000000e+00
 0.000000e+00
 0.000000e+00
 0.000000e+00
 0.000000e+00
 0.000000e+00
 0.000000e+00
 0.000000e+00
 0.000000e+00
 0.000000e+00
 0.000000e+00
 0.000000e+00
 0.000000e+00
 0.000000e+00
 0.000000e+00
 0.000000e+00
 0.000000e+00
 0.000000e+00
 0.000000e+00
 0.000000e+00
 0.000000e+00
 0.000000e+00
 0.000000e+00
 0.000000e+00
 0.000000e+00
 0.000000e+00
 0.000000e+00
 0.000000e+00
 0.000000e+00
 0.000000e+00
 0.000000e+00
 0.000000e+00
 0.000000e+00
 0.000000e+00
 0.000000e+00
 0.000000e+00
 0.000000e+00
 0.000000e+00
 4.339449e-06
 1.295176e-05
 1.276815e-05
 9.884290e-06
 1.472301e-05
 1.493293e-05
 8.182428e-06
 1.360780e-05
 1.492842e-05
 1.185414e-05
 1.770465e-05
 1.648131e-05
 1.502091e-05
 1.588347e-05
 2.769585e-05
 3.157709e-05
 3.648091e-05
 3.569931e-05
 3.818212e-05
 4.011388e-05
 2.584983e-05
 2.017947e-05
 1.800931e-05
 1.053201e-06
 -1.707304e-05
 -1.444252e-05
 6.211440e-06
 2.188850e-05
 1.802106e-05
 4.996411e-07
 -8.156855e-06
 4.607794e-06
 2.378773e-05
 2.251474e-05
 1.881243e-05
 1.795751e-05
 3.221719e-05
 2.395765e-05
 7.551575e-06
 1.293564e-05
 1.875091e-05
 1.659815e-05
 1.526384e-05
 1.142570e-06
 -1.423781e-05
 -1.764390e-05
 -1.540847e-05
 -7.482126e-06
 5.970182e-05
 0.000000e+00
 0.000000e+00
 6.770855e-06
 1.206521e-05
 1.307304e-05
 1.299483e-05
 1.350213e-05
 1.318795e-05
 1.244955e-05
 1.316617e-05
 1.376503e-05
 1.432777e-05
 1.547439e-05
 1.619252e-05
 1.681289e-05
 1.918158e-05
 2.326309e-05
 2.684089e-05
 2.920816e-05
 3.017245e-05
 3.043614e-05
 2.847266e-05
 2.348966e-05
 1.839186e-05
 1.276239e-05
 4.980833e-06
 -1.200136e-06
 -5.838650e-07
 5.631678e-06
 1.083536e-05
 1.020016e-05
 5.899352e-06
 4.238414e-06
 8.580161e-06
 1.440666e-05
 1.689089e-05
 1.709072e-05
 1.827242e-05
 1.985136e-05
 1.733859e-05
 1.337229e-05
 1.263061e-05
 1.294146e-05
 1.165315e-05
 8.016735e-06
 1.427075e-06
 -4.977726e-06
 -7.767109e-06
 -5.746748e-06
 4.755447e-06
 -1.925760e-05
 0.000000e+00
 0.000000e+00
 1.646282e-05
 1.599544e-05
 1.506934e-05
 1.437264e-05
 1.400760e-05
 1.369919e-05
 1.351085e-05
 1.372807e-05
 1.416659e-05
 1.475474e-05
 1.552913e-05
 1.638137e-05
 1.749586e-05
 1.928149e-05
 2.162195e-05
 2.382533e-05
 2.535768e-05
 2.598701e-05
 2.560587e-05
 2.385682e-05
 2.072927e-05
 1.686866e-05
 1.254810e-05
 8.092782e-06
 4.965992e-06
 4.634136e-06
 6.558996e-06
 8.465703e-06
 8.671606e-06
 7.773221e-06
 7.772141e-06
 9.675083e-06
 1.232173e-05
 1.418032e-05
 1.512609e-05
 1.575451e-05
 1.584298e-05
 1.467282e-05
 1.291019e-05
 1.165579e-05
 1.061206e-05
 8.886111e-06
 5.999672e-06
 2.166270e-06
 -1.375599e-06
 -3.238995e-06
 -2.890816e-06
 1.173871e-06
 -8.770986e-05
 0.000000e+00
 0.000000e+00
 2.965372e-05
 2.001102e-05
 1.681106e-05
 1.530694e-05
 1.455175e-05
 1.415939e-05
 1.401724e-05
 1.412723e-05
 1.444624e-05
 1.493437e-05
 1.557771e-05
 1.637508e-05
 1.739207e-05
 1.869675e-05
 2.017719e-05
 2.153132e-05
 2.245086e-05
 2.272350e-05
 2.220707e-05
 2.080069e-05
 1.856962e-05
 1.578108e-05
 1.275031e-05
 9.911595e-06
 7.917010e-06
 7.236113e-06
 7.625214e-06
 8.265396e-06
 8.531550e-06
 8.549457e-06
 8.924065e-06
 9.970727e-06
 1.135348e-05
 1.253060e-05
 1.327829e-05
 1.361255e-05
 1.345363e-05
 1.270680e-05
 1.158487e-05
 1.038464e-05
 9.067322e-06
 7.370009e-06
 5.157150e-06
 2.638148e-06
 3.720540e-07
 -1.096508e-06
 -1.907351e-06
 -5.664595e-06
 -5.357160e-05
 0.000000e+00
 0.000000e+00
 2.875493e-05
 2.033058e-05
 1.710351e-05
 1.555931e-05
 1.477933e-05
 1.439083e-05
 1.425398e-05
 1.432101e-05
 1.456292e-05
 1.495649e-05
 1.548809e-05
 1.615501e-05
 1.696391e-05
 1.789707e-05
 1.886198e-05
 1.969189e-05
 2.020365e-05
 2.024848e-05
 1.972902e-05
 1.861278e-05
 1.696448e-05
 1.495212e-05
 1.281682e-05
 1.086227e-05
 9.411528e-06
 8.650102e-06
 8.479895e-06
 8.592733e-06
 8.736635e-06
 8.906959e-06
 9.265590e-06
 9.894367e-06
 1.066709e-05
 1.135934e-05
 1.181129e-05
 1.194944e-05
 1.172721e-05
 1.113775e-05
 1.025931e-05
 9.187361e-06
 7.929812e-06
 6.431097e-06
 4.691923e-06
 2.860513e-06
 1.223016e-06
 9.706563e-08
 -1.778631e-07
 3.973496e-06
 1.714629e-05
 0.000000e+00
 0.000000e+00
 2.032264e-05
 1.719309e-05
 1.590718e-05
 1.512669e-05
 1.465032e-05
 1.438468e-05
 1.428781e-05
 1.434066e-05
 1.452977e-05
 1.484215e-05
 1.526589e-05
 1.578975e-05
 1.639718e-05
 1.705124e-05
 1.767955e-05
 1.817758e-05
 1.843205e-05
 1.834750e-05
 1.786488e-05
 1.697578e-05
 1.573422e-05
 1.425708e-05
 1.271034e-05
 1.128649e-05
 1.016194e-05
 9.431083e-06
 9.063397e-06
 8.939525e-06
 8.948690e-06
 9.058584e-06
 9.293812e-06
 9.656219e-06
 1.007747e-05
 1.044560e-05
 1.065928e-05
 1.065163e-05
 1.038692e-05
 9.862173e-06
 9.107644e-06
 8.162075e-06
 7.044037e-06
 5.760250e-06
 4.345456e-06
 2.893190e-06
 1.550483e-06
 5.050386e-07
 1.113931e-07
 2.767058e-06
 -1.047794e-04
 0.000000e+00
 0.000000e+00
 9.786800e-06
 1.318301e-05
 1.424300e-05
 1.440554e-05
 1.431864e-05
 1.421334e-05
 1.417243e-05
 1.422397e-05
 1.437361e-05
 1.461668e-05
 1.494302e-05
 1.533759e-05
 1.577730e-05
 1.622511e-05
 1.662589e-05
 1.691011e-05
 1.700568e-05
 1.685299e-05
 1.641801e-05
 1.570218e-05
 1.474785e-05
 1.363663e-05
 1.247928e-05
 1.139718e-05
 1.049522e-05
 9.831964e-06
 9.405417e-06
 9.169459e-06
 9.071445e-06
 9.079900e-06
 9.180575e-06
 9.351139e-06
 9.543976e-06
 9.692991e-06
 9.733397e-06
 9.616205e-06
 9.313246e-06
 8.818026e-06
 8.142323e-06
 7.306217e-06
 6.329018e-06
 5.231447e-06
 4.046093e-06
 2.820242e-06
 1.595987e-06
 3.629149e-07
 -1.027795e-06
 -2.138034e-06
 -3.593592e-05
 0.000000e+00
 0.000000e+00
 5.145786e-06
 1.143716e-05
 1.331101e-05
 1.387606e-05
 1.398470e-05
 1.396988e-05
 1.396136e-05
 1.400761e-05
 1.412318e-05
 1.430726e-05
 1.455068e-05
 1.483790e-05
 1.514609e-05
 1.544334e-05
 1.568831e-05
 1.583343e-05
 1.583193e-05
 1.564678e-05
 1.525901e-05
 1.467388e-05
 1.392343e-05
 1.306434e-05
 1.217035e-05
 1.131961e-05
 1.057869e-05
 9.988069e-06
 9.556089e-06
 9.266036e-06
 9.091305e-06
 9.007339e-06
 8.992413e-06
 9.020310e-06
 9.054761e-06
 9.051937e-06
 8.968651e-06
 8.770259e-06
 8.435124e-06
 7.955746e-06
 7.336881e-06
 6.591385e-06
 5.736571e-06
 4.793568e-06
 3.787160e-06
 2.737637e-06
 1.630114e-06
 3.288570e-07
 -1.642042e-06
 -4.267122e-06
 -5.426216e-05
 0.000000e+00
 0.000000e+00
 1.136811e-05
 1.269775e-05
 1.349509e-05
 1.372863e-05
 1.374495e-05
 1.370835e-05
 1.369055e-05
 1.371963e-05
 1.380301e-05
 1.393749e-05
 1.411337e-05
 1.431569e-05
 1.452411e-05
 1.471270e-05
 1.485067e-05
 1.490500e-05
 1.484490e-05
 1.464731e-05
 1.430199e-05
 1.381516e-05
 1.321064e-05
 1.252780e-05
 1.181624e-05
 1.112758e-05
 1.050613e-05
 9.981081e-06
 9.563297e-06
 9.248002e-06
 9.021138e-06
 8.864916e-06
 8.759481e-06
 8.681489e-06
 8.602957e-06
 8.492882e-06
 8.321267e-06
 8.063495e-06
 7.703367e-06
 7.234288e-06
 6.658705e-06
 5.986460e-06
 5.233128e-06
 4.418911e-06
 3.566759e-06
 2.696364e-06
 1.808378e-06
 8.393293e-07
 -5.606961e-07
 -7.298015e-06
 -1.457052e-06
 0.000000e+00
 0.000000e+00
 1.736215e-05
 1.510235e-05
 1.419188e-05
 1.376915e-05
 1.354397e-05
 1.342143e-05
 1.336973e-05
 1.337575e-05
 1.343071e-05
 1.352547e-05
 1.364875e-05
 1.378642e-05
 1.392110e-05
 1.403225e-05
 1.409702e-05
 1.409228e-05
 1.399755e-05
 1.379838e-05
 1.348949e-05
 1.307682e-05
 1.257794e-05
 1.202037e-05
 1.143797e-05
 1.086567e-05
 1.033392e-05
 9.864110e-06
 9.466498e-06
 9.141043e-06
 8.880087e-06
 8.671109e-06
 8.498239e-06
 8.342630e-06
 8.182859e-06
 7.996304e-06
 7.761500e-06
 7.460738e-06
 7.082102e-06
 6.620562e-06
 6.078124e-06
 5.463405e-06
 4.791137e-06
 4.081887e-06
 3.361976e-06
 2.664455e-06
 2.039110e-06
 1.616937e-06
 1.985500e-06
 8.901651e-06
 7.082461e-05
 0.000000e+00
 0.000000e+00
 2.265269e-05
 1.638598e-05
 1.447999e-05
 1.363905e-05
 1.324877e-05
 1.306612e-05
 1.299169e-05
 1.298278e-05
 1.301827e-05
 1.308444e-05
 1.316917e-05
 1.325958e-05
 1.334123e-05
 1.339808e-05
 1.341329e-05
 1.337058e-05
 1.325620e-05
 1.306110e-05
 1.278277e-05
 1.242642e-05
 1.200501e-05
 1.153799e-05
 1.104881e-05
 1.056164e-05
 1.009784e-05
 9.673162e-06
 9.296273e-06
 8.968817e-06
 8.686534e-06
 8.440700e-06
 8.219273e-06
 8.007700e-06
 7.789733e-06
 7.548619e-06
 7.268686e-06
 6.937027e-06
 6.544931e-06
 6.088839e-06
 5.570832e-06
 4.998867e-06
 4.387078e-06
 3.756508e-06
 3.136658e-06
 2.568695e-06
 2.112730e-06
 1.867809e-06
 2.051341e-06
 4.597267e-06
 -1.207714e-04
 0.000000e+00
 0.000000e+00
 1.856365e-05
 1.537093e-05
 1.384478e-05
 1.311051e-05
 1.276674e-05
 1.261080e-05
 1.255124e-05
 1.254642e-05
 1.257533e-05
 1.262470e-05
 1.268362e-05
 1.274123e-05
 1.278599e-05
 1.280566e-05
 1.278791e-05
 1.272132e-05
 1.259669e-05
 1.240836e-05
 1.215540e-05
 1.184221e-05
 1.147839e-05
 1.107787e-05
 1.065716e-05
 1.023327e-05
 9.821415e-06
 9.433218e-06
 9.075626e-06
 8.750686e-06
 8.455992e-06
 8.185462e-06
 7.930159e-06
 7.679069e-06
 7.419930e-06
 7.140223e-06
 6.828312e-06
 6.474626e-06
 6.072705e-06
 5.620008e-06
 5.118519e-06
 4.575281e-06
 4.003168e-06
 3.422261e-06
 2.862350e-06
 2.366436e-06
 1.989341e-06
 1.746960e-06
 1.230360e-06
 -4.129133e-06
 3.615339e-07
 0.000000e+00
 0.000000e+00
 1.495689e-05
 1.296496e-05
 1.245829e-05
 1.222672e-05
 1.211402e-05
 1.206651e-05
 1.205905e-05
 1.207747e-05
 1.211222e-05
 1.215539e-05
 1.219923e-05
 1.223561e-05
 1.225580e-05
 1.225079e-05
 1.221173e-05
 1.213072e-05
 1.200167e-05
 1.182116e-05
 1.158917e-05
 1.130935e-05
 1.098893e-05
 1.063800e-05
 1.026839e-05
 9.892242e-06
 9.520523e-06
 9.161831e-06
 8.821576e-06
 8.501697e-06
 8.200812e-06
 7.914651e-06
 7.636619e-06
 7.358437e-06
 7.070843e-06
 6.764378e-06
 6.430237e-06
 6.061121e-06
 5.652009e-06
 5.200808e-06
 4.708907e-06
 4.181743e-06
 3.629626e-06
 3.069252e-06
 2.526744e-06
 2.044151e-06
 1.694446e-06
 1.623869e-06
 2.235173e-06
 7.234229e-06
 1.854195e-05
 0.000000e+00
 0.000000e+00
 8.603039e-06
 9.906903e-06
 1.084897e-05
 1.123569e-05
 1.139993e-05
 1.148379e-05
 1.154166e-05
 1.159242e-05
 1.164072e-05
 1.168531e-05
 1.172222e-05
 1.174610e-05
 1.175084e-05
 1.173011e-05
 1.167780e-05
 1.158861e-05
 1.145867e-05
 1.128608e-05
 1.107136e-05
 1.081758e-05
 1.053027e-05
 1.021687e-05
 9.885972e-06
 9.546367e-06
 9.206060e-06
 8.871418e-06
 8.546588e-06
 8.233227e-06
 7.930521e-06
 7.635427e-06
 7.343062e-06
 7.047182e-06
 6.740736e-06
 6.416463e-06
 6.067522e-06
 5.688103e-06
 5.273981e-06
 4.822977e-06
 4.335354e-06
 3.814182e-06
 3.265830e-06
 2.700833e-06
 2.135832e-06
 1.599008e-06
 1.148960e-06
 9.512359e-07
 1.597452e-06
 6.890750e-06
 -8.599307e-05
 0.000000e+00
 0.000000e+00
 1.872102e-06
 7.985582e-06
 9.740578e-06
 1.043631e-05
 1.075327e-05
 1.092192e-05
 1.102934e-05
 1.110895e-05
 1.117253e-05
 1.122270e-05
 1.125813e-05
 1.127567e-05
 1.127140e-05
 1.124115e-05
 1.118099e-05
 1.108759e-05
 1.095873e-05
 1.079357e-05
 1.059301e-05
 1.035969e-05
 1.009791e-05
 9.813269e-06
 9.512118e-06
 9.200916e-06
 8.885554e-06
 8.570768e-06
 8.259713e-06
 7.953727e-06
 7.652309e-06
 7.353247e-06
 7.052882e-06
 6.746458e-06
 6.428526e-06
 6.093389e-06
 5.735551e-06
 5.350133e-06
 4.933241e-06
 4.482232e-06
 3.995890e-06
 3.474471e-06
 2.919626e-06
 2.334074e-06
 1.720702e-06
 1.080021e-06
 4.024061e-07
 -3.572245e-07
 -1.359531e-06
 -5.890120e-07
 -7.060101e-05
 0.000000e+00
 0.000000e+00
 7.501988e-06
 8.672708e-06
 9.488481e-06
 9.958877e-06
 1.023518e-05
 1.041361e-05
 1.054165e-05
 1.064018e-05
 1.071715e-05
 1.077457e-05
 1.081180e-05
 1.082703e-05
 1.081797e-05
 1.078222e-05
 1.071758e-05
 1.062229e-05
 1.049536e-05
 1.033678e-05
 1.014770e-05
 9.930473e-06
 9.688537e-06
 9.426193e-06
 9.148220e-06
 8.859428e-06
 8.564201e-06
 8.266081e-06
 7.967455e-06
 7.669372e-06
 7.371498e-06
 7.072184e-06
 6.768646e-06
 6.457199e-06
 6.133554e-06
 5.793123e-06
 5.431325e-06
 5.043849e-06
 4.626857e-06
 4.177072e-06
 3.691739e-06
 3.168377e-06
 2.604194e-06
 1.994852e-06
 1.331570e-06
 5.933642e-07
 -2.778588e-07
 -1.471078e-06
 -3.705175e-06
 -1.134569e-05
 -7.301756e-05
 0.000000e+00
 0.000000e+00
 1.292091e-05
 9.857968e-06
 9.584502e-06
 9.663095e-06
 9.806926e-06
 9.951549e-06
 1.008151e-05
 1.019207e-05
 1.028092e-05
 1.034645e-05
 1.038740e-05
 1.040266e-05
 1.039126e-05
 1.035227e-05
 1.028493e-05
 1.018879e-05
 1.006383e-05
 9.910687e-06
 9.730734e-06
 9.526108e-06
 9.299655e-06
 9.054754e-06
 8.795067e-06
 8.524232e-06
 8.245546e-06
 7.961674e-06
 7.674419e-06
 7.384588e-06
 7.091933e-06
 6.795197e-06
 6.492216e-06
 6.180090e-06
 5.855370e-06
 5.514272e-06
 5.152858e-06
 4.767181e-06
 4.353356e-06
 3.907512e-06
 3.425585e-06
 2.902882e-06
 2.333289e-06
 1.707885e-06
 1.012521e-06
 2.236608e-07
 -6.979189e-07
 -1.810726e-06
 -3.162578e-06
 -5.324388e-06
 6.708726e-05
 0.000000e+00
 0.000000e+00
 1.051402e-05
 9.916220e-06
 9.444184e-06
 9.327331e-06
 9.383512e-06
 9.505361e-06
 9.641024e-06
 9.765771e-06
 9.868070e-06
 9.942956e-06
 9.988682e-06
 1.000498e-05
 9.992160e-06
 9.950713e-06
 9.881183e-06
 9.784205e-06
 9.660608e-06
 9.511541e-06
 9.338558e-06
 9.143663e-06
 8.929270e-06
 8.698097e-06
 8.453003e-06
 8.196780e-06
 7.931932e-06
 7.660478e-06
 7.383783e-06
 7.102455e-06
 6.816299e-06
 6.524329e-06
 6.224842e-06
 5.915516e-06
 5.593541e-06
 5.255738e-06
 4.898665e-06
 4.518667e-06
 4.111850e-06
 3.673940e-06
 3.199984e-06
 2.683836e-06
 2.117373e-06
 1.489385e-06
 7.843740e-07
 -1.713249e-08
 -9.282045e-07
 -1.891018e-06
 -2.412915e-06
 2.802369e-06
 -1.887758e-05
 0.000000e+00
 0.000000e+00
 1.157927e-05
 9.423450e-06
 8.947924e-06
 8.835251e-06
 8.903099e-06
 9.049471e-06
 9.213476e-06
 9.362932e-06
 9.483128e-06
 9.568839e-06
 9.619480e-06
 9.636433e-06
 9.621691e-06
 9.577250e-06
 9.504912e-06
 9.406295e-06
 9.282930e-06
 9.136385e-06
 8.968365e-06
 8.780769e-06
 8.575687e-06
 8.355350e-06
 8.122022e-06
 7.877869e-06
 7.624815e-06
 7.364395e-06
 7.097644e-06
 6.825019e-06
 6.546356e-06
 6.260875e-06
 5.967223e-06
 5.663532e-06
 5.347497e-06
 5.016441e-06
 4.667361e-06
 4.296913e-06
 3.901330e-06
 3.476224e-06
 3.016253e-06
 2.514599e-06
 1.962247e-06
 1.347069e-06
 6.528343e-07
 -1.415653e-07
 -1.063147e-06
 -2.158597e-06
 -3.654938e-06
 -9.506594e-06
 -5.473646e-05
 0.000000e+00
 0.000000e+00
 8.215573e-06
 8.223626e-06
 8.127078e-06
 8.171445e-06
 8.351050e-06
 8.580700e-06
 8.803283e-06
 8.990843e-06
 9.133385e-06
 9.230085e-06
 9.284048e-06
 9.299572e-06
 9.280883e-06
 9.231651e-06
 9.154907e-06
 9.053140e-06
 8.928455e-06
 8.782738e-06
 8.617783e-06
 8.435385e-06
 8.237368e-06
 8.025578e-06
 7.801823e-06
 7.567797e-06
 7.324979e-06
 7.074543e-06
 6.817276e-06
 6.553518e-06
 6.283133e-06
 6.005508e-06
 5.719571e-06
 5.423832e-06
 5.116419e-06
 4.795115e-06
 4.457357e-06
 4.100195e-06
 3.720177e-06
 3.313134e-06
 2.873845e-06
 2.395544e-06
 1.869258e-06
 1.282980e-06
 6.205818e-07
 -1.403823e-07
 -1.036747e-06
 -2.153953e-06
 -3.741840e-06
 -6.409711e-06
 8.456206e-05
 0.000000e+00
 0.000000e+00
 7.538634e-06
 7.188571e-06
 7.088011e-06
 7.370271e-06
 7.755264e-06
 8.123985e-06
 8.431003e-06
 8.665195e-06
 8.830072e-06
 8.934229e-06
 8.987020e-06
 8.996822e-06
 8.970508e-06
 8.913471e-06
 8.829861e-06
 8.722866e-06
 8.595000e-06
 8.448328e-06
 8.284652e-06
 8.105623e-06
 7.912818e-06
 7.707751e-06
 7.491861e-06
 7.266463e-06
 7.032695e-06
 6.791448e-06
 6.543319e-06
 6.288563e-06
 6.027074e-06
 5.758381e-06
 5.481659e-06
 5.195747e-06
 4.899177e-06
 4.590180e-06
 4.266676e-06
 3.926219e-06
 3.565877e-06
 3.182037e-06
 2.770088e-06
 2.323973e-06
 1.835590e-06
 1.294066e-06
 6.850324e-07
 -9.791030e-09
 -8.122790e-07
 -1.745941e-06
 -2.816199e-06
 -5.453134e-06
 -2.095261e-06
 0.000000e+00
 0.000000e+00
 8.506099e-06
 5.241416e-06
 5.722586e-06
 6.489707e-06
 7.187002e-06
 7.734194e-06
 8.133723e-06
 8.409575e-06
 8.587539e-06
 8.689543e-06
 8.732719e-06
 8.729936e-06
 8.690645e-06
 8.621708e-06
 8.528086e-06
 8.413391e-06
 8.280307e-06
 8.130902e-06
 7.966860e-06
 7.789630e-06
 7.600517e-06
 7.400727e-06
 7.191375e-06
 6.973461e-06
 6.747839e-06
 6.515180e-06
 6.275928e-06
 6.030278e-06
 5.778160e-06
 5.519229e-06
 5.252884e-06
 4.978272e-06
 4.694311e-06
 4.399693e-06
 4.092871e-06
 3.772015e-06
 3.434913e-06
 3.078813e-06
 2.700159e-06
 2.294208e-06
 1.854474e-06
 1.371988e-06
 8.346440e-07
 2.280587e-07
 -4.560189e-07
 -1.185311e-06
 -1.813248e-06
 -3.891690e-06
 8.611512e-05
 0.000000e+00
 0.000000e+00
 -2.372579e-06
 2.136867e-06
 4.191086e-06
 5.715131e-06
 6.779818e-06
 7.494717e-06
 7.960096e-06
 8.251092e-06
 8.420136e-06
 8.502965e-06
 8.523812e-06
 8.499130e-06
 8.440116e-06
 8.354406e-06
 8.247233e-06
 8.122207e-06
 7.981871e-06
 7.828075e-06
 7.662234e-06
 7.485503e-06
 7.298877e-06
 7.103248e-06
 6.899427e-06
 6.688134e-06
 6.469985e-06
 6.245461e-06
 6.014889e-06
 5.778418e-06
 5.536013e-06
 5.287452e-06
 5.032337e-06
 4.770109e-06
 4.500063e-06
 4.221363e-06
 3.933039e-06
 3.633968e-06
 3.322818e-06
 2.997948e-06
 2.657241e-06
 2.297817e-06
 1.915560e-06
 1.504237e-06
 1.053901e-06
 5.484444e-07
 -3.459444e-08
 -6.965855e-07
 -1.195980e-06
 4.874310e-07
 3.426231e-05
 0.000000e+00
 0.000000e+00
 -4.541606e-06
 -4.317765e-07
 3.204342e-06
 5.406671e-06
 6.719561e-06
 7.500150e-06
 7.957012e-06
 8.211815e-06
 8.337076e-06
 8.377105e-06
 8.359580e-06
 8.302078e-06
 8.215889e-06
 8.108307e-06
 7.984058e-06
 7.846221e-06
 7.696827e-06
 7.537250e-06
 7.368474e-06
 7.191255e-06
 7.006227e-06
 6.813948e-06
 6.614933e-06
 6.409642e-06
 6.198478e-06
 5.981762e-06
 5.759718e-06
 5.532461e-06
 5.299993e-06
 5.062201e-06
 4.818879e-06
 4.569741e-06
 4.314447e-06
 4.052631e-06
 3.783921e-06
 3.507951e-06
 3.224366e-06
 2.932801e-06
 2.632842e-06
 2.323927e-06
 2.005125e-06
 1.674467e-06
 1.326826e-06
 9.469081e-07
 4.863418e-07
 -2.102717e-07
 -1.644155e-06
 -7.299433e-06
 1.625676e-05
 0.000000e+00
 0.000000e+00
 -1.270314e-05
 -9.390078e-07
 3.640051e-06
 5.949736e-06
 7.167375e-06
 7.815577e-06
 8.148248e-06
 8.297624e-06
 8.336606e-06
 8.307189e-06
 8.234315e-06
 8.133071e-06
 8.012643e-06
 7.878606e-06
 7.734300e-06
 7.581688e-06
 7.421901e-06
 7.255588e-06
 7.083136e-06
 6.904807e-06
 6.720818e-06
 6.531378e-06
 6.336703e-06
 6.137010e-06
 5.932507e-06
 5.723371e-06
 5.509740e-06
 5.291698e-06
 5.069278e-06
 4.842468e-06
 4.611229e-06
 4.375524e-06
 4.135353e-06
 3.890797e-06
 3.642064e-06
 3.389548e-06
 3.133885e-06
 2.876028e-06
 2.617345e-06
 2.359784e-06
 2.106125e-06
 1.860341e-06
 1.627649e-06
 1.411792e-06
 1.197590e-06
 8.646551e-07
 -2.134746e-07
 -8.695300e-06
 1.038729e-04
 0.000000e+00
 0.000000e+00
 -4.529179e-06
 3.074858e-06
 6.099641e-06
 7.492415e-06
 8.145129e-06
 8.428259e-06
 8.513713e-06
 8.489035e-06
 8.401861e-06
 8.279169e-06
 8.136480e-06
 7.982668e-06
 7.822648e-06
 7.658955e-06
 7.492716e-06
 7.324252e-06
 7.153461e-06
 6.980047e-06
 6.803669e-06
 6.624019e-06
 6.440862e-06
 6.254043e-06
 6.063489e-06
 5.869185e-06
 5.671161e-06
 5.469467e-06
 5.264163e-06
 5.055305e-06
 4.842949e-06
 4.627164e-06
 4.408051e-06
 4.185787e-06
 3.960666e-06
 3.733168e-06
 3.504031e-06
 3.274345e-06
 3.045668e-06
 2.820172e-06
 2.600862e-06
 2.391938e-06
 2.199504e-06
 2.033150e-06
 1.909795e-06
 1.863440e-06
 1.970530e-06
 2.418456e-06
 3.711187e-06
 5.542878e-06
 1.418254e-04
 0.000000e+00
 0.000000e+00
 1.188406e-05
 1.049899e-05
 9.987765e-06
 9.702760e-06
 9.464041e-06
 9.226146e-06
 8.983252e-06
 8.739739e-06
 8.500835e-06
 8.270090e-06
 8.049135e-06
 7.838095e-06
 7.636100e-06
 7.441720e-06
 7.253288e-06
 7.069116e-06
 6.887637e-06
 6.707476e-06
 6.527486e-06
 6.346754e-06
 6.164579e-06
 5.980455e-06
 5.794031e-06
 5.605084e-06
 5.413485e-06
 5.219174e-06
 5.022140e-06
 4.822411e-06
 4.620055e-06
 4.415198e-06
 4.208045e-06
 3.998936e-06
 3.788399e-06
 3.577236e-06
 3.366623e-06
 3.158235e-06
 2.954405e-06
 2.758321e-06