<VTKFile type="UnstructuredGrid"  version="0.1"   >
<UnstructuredGrid>  
<Piece  NumberOfPoints="     2601"  NumberOfCells="     5000">  
<Points>  
<DataArray  type="Float64"  NumberOfComponents="3"  format="ascii">  
 0.000000 0.000000 0.000000 
 0.020000 0.000000 0.000000 
 0.040000 0.000000 0.000000 
 0.060000 0.000000 0.000000 
 0.080000 0.000000 0.000000 
 0.100000 0.000000 0.000000 
 0.120000 0.000000 0.000000 
 0.140000 0.000000 0.000000 
 0.160000 0.000000 0.000000 
 0.180000 0.000000 0.000000 
 0.200000 0.000000 0.000000 
 0.220000 0.000000 0.000000 
 0.240000 0.000000 0.000000 
 0.260000 0.000000 0.000000 
 0.280000 0.000000 0.000000 
 0.300000 0.000000 0.000000 
 0.320000 0.000000 0.000000 
 0.340000 0.000000 0.000000 
 0.360000 0.000000 0.000000 
 0.380000 0.000000 0.000000 
 0.400000 0.000000 0.000000 
 0.420000 0.000000 0.000000 
 0.440000 0.000000 0.000000 
 0.460000 0.000000 0.000000 
 0.480000 0.000000 0.000000 
 0.500000 0.000000 0.000000 
 0.520000 0.000000 0.000000 
 0.540000 0.000000 0.000000 
 0.560000 0.000000 0.000000 
 0.580000 0.000000 0.000000 
 0.600000 0.000000 0.000000 
 0.620000 0.000000 0.000000 
 0.640000 0.000000 0.000000 
 0.660000 0.000000 0.000000 
 0.680000 0.000000 0.000000 
 0.700000 0.000000 0.000000 
 0.720000 0.000000 0.000000 
 0.740000 0.000000 0.000000 
 0.760000 0.000000 0.000000 
 0.780000 0.000000 0.000000 
 0.800000 0.000000 0.000000 
 0.820000 0.000000 0.000000 
 0.840000 0.000000 0.000000 
 0.860000 0.000000 0.000000 
 0.880000 0.000000 0.000000 
 0.900000 0.000000 0.000000 
 0.920000 0.000000 0.000000 
 0.940000 0.000000 0.000000 
 0.960000 0.000000 0.000000 
 0.980000 0.000000 0.000000 
 1.000000 0.000000 0.000000 
 0.000000 0.020000 0.000000 
 0.020000 0.020000 0.000000 
 0.040000 0.020000 0.000000 
 0.060000 0.020000 0.000000 
 0.080000 0.020000 0.000000 
 0.100000 0.020000 0.000000 
 0.120000 0.020000 0.000000 
 0.140000 0.020000 0.000000 
 0.160000 0.020000 0.000000 
 0.180000 0.020000 0.000000 
 0.200000 0.020000 0.000000 
 0.220000 0.020000 0.000000 
 0.240000 0.020000 0.000000 
 0.260000 0.020000 0.000000 
 0.280000 0.020000 0.000000 
 0.300000 0.020000 0.000000 
 0.320000 0.020000 0.000000 
 0.340000 0.020000 0.000000 
 0.360000 0.020000 0.000000 
 0.380000 0.020000 0.000000 
 0.400000 0.020000 0.000000 
 0.420000 0.020000 0.000000 
 0.440000 0.020000 0.000000 
 0.460000 0.020000 0.000000 
 0.480000 0.020000 0.000000 
 0.500000 0.020000 0.000000 
 0.520000 0.020000 0.000000 
 0.540000 0.020000 0.000000 
 0.560000 0.020000 0.000000 
 0.580000 0.020000 0.000000 
 0.600000 0.020000 0.000000 
 0.620000 0.020000 0.000000 
 0.640000 0.020000 0.000000 
 0.660000 0.020000 0.000000 
 0.680000 0.020000 0.000000 
 0.700000 0.020000 0.000000 
 0.720000 0.020000 0.000000 
 0.740000 0.020000 0.000000 
 0.760000 0.020000 0.000000 
 0.780000 0.020000 0.000000 
 0.800000 0.020000 0.000000 
 0.820000 0.020000 0.000000 
 0.840000 0.020000 0.000000 
 0.860000 0.020000 0.000000 
 0.880000 0.020000 0.000000 
 0.900000 0.020000 0.000000 
 0.920000 0.020000 0.000000 
 0.940000 0.020000 0.000000 
 0.960000 0.020000 0.000000 
 0.980000 0.020000 0.000000 
 1.000000 0.020000 0.000000 
 0.000000 0.040000 0.000000 
 0.020000 0.040000 0.000000 
 0.040000 0.040000 0.000000 
 0.060000 0.040000 0.000000 
 0.080000 0.040000 0.000000 
 0.100000 0.040000 0.000000 
 0.120000 0.040000 0.000000 
 0.140000 0.040000 0.000000 
 0.160000 0.040000 0.000000 
 0.180000 0.040000 0.000000 
 0.200000 0.040000 0.000000 
 0.220000 0.040000 0.000000 
 0.240000 0.040000 0.000000 
 0.260000 0.040000 0.000000 
 0.280000 0.040000 0.000000 
 0.300000 0.040000 0.000000 
 0.320000 0.040000 0.000000 
 0.340000 0.040000 0.000000 
 0.360000 0.040000 0.000000 
 0.380000 0.040000 0.000000 
 0.400000 0.040000 0.000000 
 0.420000 0.040000 0.000000 
 0.440000 0.040000 0.000000 
 0.460000 0.040000 0.000000 
 0.480000 0.040000 0.000000 
 0.500000 0.040000 0.000000 
 0.520000 0.040000 0.000000 
 0.540000 0.040000 0.000000 
 0.560000 0.040000 0.000000 
 0.580000 0.040000 0.000000 
 0.600000 0.040000 0.000000 
 0.620000 0.040000 0.000000 
 0.640000 0.040000 0.000000 
 0.660000 0.040000 0.000000 
 0.680000 0.040000 0.000000 
 0.700000 0.040000 0.000000 
 0.720000 0.040000 0.000000 
 0.740000 0.040000 0.000000 
 0.760000 0.040000 0.000000 
 0.780000 0.040000 0.000000 
 0.800000 0.040000 0.000000 
 0.820000 0.040000 0.000000 
 0.840000 0.040000 0.000000 
 0.860000 0.040000 0.000000 
 0.880000 0.040000 0.000000 
 0.900000 0.040000 0.000000 
 0.920000 0.040000 0.000000 
 0.940000 0.040000 0.000000 
 0.960000 0.040000 0.000000 
 0.980000 0.040000 0.000000 
 1.000000 0.040000 0.000000 
 0.000000 0.060000 0.000000 
 0.020000 0.060000 0.000000 
 0.040000 0.060000 0.000000 
 0.060000 0.060000 0.000000 
 0.080000 0.060000 0.000000 
 0.100000 0.060000 0.000000 
 0.120000 0.060000 0.000000 
 0.140000 0.060000 0.000000 
 0.160000 0.060000 0.000000 
 0.180000 0.060000 0.000000 
 0.200000 0.060000 0.000000 
 0.220000 0.060000 0.000000 
 0.240000 0.060000 0.000000 
 0.260000 0.060000 0.000000 
 0.280000 0.060000 0.000000 
 0.300000 0.060000 0.000000 
 0.320000 0.060000 0.000000 
 0.340000 0.060000 0.000000 
 0.360000 0.060000 0.000000 
 0.380000 0.060000 0.000000 
 0.400000 0.060000 0.000000 
 0.420000 0.060000 0.000000 
 0.440000 0.060000 0.000000 
 0.460000 0.060000 0.000000 
 0.480000 0.060000 0.000000 
 0.500000 0.060000 0.000000 
 0.520000 0.060000 0.000000 
 0.540000 0.060000 0.000000 
 0.560000 0.060000 0.000000 
 0.580000 0.060000 0.000000 
 0.600000 0.060000 0.000000 
 0.620000 0.060000 0.000000 
 0.640000 0.060000 0.000000 
 0.660000 0.060000 0.000000 
 0.680000 0.060000 0.000000 
 0.700000 0.060000 0.000000 
 0.720000 0.060000 0.000000 
 0.740000 0.060000 0.000000 
 0.760000 0.060000 0.000000 
 0.780000 0.060000 0.000000 
 0.800000 0.060000 0.000000 
 0.820000 0.060000 0.000000 
 0.840000 0.060000 0.000000 
 0.860000 0.060000 0.000000 
 0.880000 0.060000 0.000000 
 0.900000 0.060000 0.000000 
 0.920000 0.060000 0.000000 
 0.940000 0.060000 0.000000 
 0.960000 0.060000 0.000000 
 0.980000 0.060000 0.000000 
 1.000000 0.060000 0.000000 
 0.000000 0.080000 0.000000 
 0.020000 0.080000 0.000000 
 0.040000 0.080000 0.000000 
 0.060000 0.080000 0.000000 
 0.080000 0.080000 0.000000 
 0.100000 0.080000 0.000000 
 0.120000 0.080000 0.000000 
 0.140000 0.080000 0.000000 
 0.160000 0.080000 0.000000 
 0.180000 0.080000 0.000000 
 0.200000 0.080000 0.000000 
 0.220000 0.080000 0.000000 
 0.240000 0.080000 0.000000 
 0.260000 0.080000 0.000000 
 0.280000 0.080000 0.000000 
 0.300000 0.080000 0.000000 
 0.320000 0.080000 0.000000 
 0.340000 0.080000 0.000000 
 0.360000 0.080000 0.000000 
 0.380000 0.080000 0.000000 
 0.400000 0.080000 0.000000 
 0.420000 0.080000 0.000000 
 0.440000 0.080000 0.000000 
 0.460000 0.080000 0.000000 
 0.480000 0.080000 0.000000 
 0.500000 0.080000 0.000000 
 0.520000 0.080000 0.000000 
 0.540000 0.080000 0.000000 
 0.560000 0.080000 0.000000 
 0.580000 0.080000 0.000000 
 0.600000 0.080000 0.000000 
 0.620000 0.080000 0.000000 
 0.640000 0.080000 0.000000 
 0.660000 0.080000 0.000000 
 0.680000 0.080000 0.000000 
 0.700000 0.080000 0.000000 
 0.720000 0.080000 0.000000 
 0.740000 0.080000 0.000000 
 0.760000 0.080000 0.000000 
 0.780000 0.080000 0.000000 
 0.800000 0.080000 0.000000 
 0.820000 0.080000 0.000000 
 0.840000 0.080000 0.000000 
 0.860000 0.080000 0.000000 
 0.880000 0.080000 0.000000 
 0.900000 0.080000 0.000000 
 0.920000 0.080000 0.000000 
 0.940000 0.080000 0.000000 
 0.960000 0.080000 0.000000 
 0.980000 0.080000 0.000000 
 1.000000 0.080000 0.000000 
 0.000000 0.100000 0.000000 
 0.020000 0.100000 0.000000 
 0.040000 0.100000 0.000000 
 0.060000 0.100000 0.000000 
 0.080000 0.100000 0.000000 
 0.100000 0.100000 0.000000 
 0.120000 0.100000 0.000000 
 0.140000 0.100000 0.000000 
 0.160000 0.100000 0.000000 
 0.180000 0.100000 0.000000 
 0.200000 0.100000 0.000000 
 0.220000 0.100000 0.000000 
 0.240000 0.100000 0.000000 
 0.260000 0.100000 0.000000 
 0.280000 0.100000 0.000000 
 0.300000 0.100000 0.000000 
 0.320000 0.100000 0.000000 
 0.340000 0.100000 0.000000 
 0.360000 0.100000 0.000000 
 0.380000 0.100000 0.000000 
 0.400000 0.100000 0.000000 
 0.420000 0.100000 0.000000 
 0.440000 0.100000 0.000000 
 0.460000 0.100000 0.000000 
 0.480000 0.100000 0.000000 
 0.500000 0.100000 0.000000 
 0.520000 0.100000 0.000000 
 0.540000 0.100000 0.000000 
 0.560000 0.100000 0.000000 
 0.580000 0.100000 0.000000 
 0.600000 0.100000 0.000000 
 0.620000 0.100000 0.000000 
 0.640000 0.100000 0.000000 
 0.660000 0.100000 0.000000 
 0.680000 0.100000 0.000000 
 0.700000 0.100000 0.000000 
 0.720000 0.100000 0.000000 
 0.740000 0.100000 0.000000 
 0.760000 0.100000 0.000000 
 0.780000 0.100000 0.000000 
 0.800000 0.100000 0.000000 
 0.820000 0.100000 0.000000 
 0.840000 0.100000 0.000000 
 0.860000 0.100000 0.000000 
 0.880000 0.100000 0.000000 
 0.900000 0.100000 0.000000 
 0.920000 0.100000 0.000000 
 0.940000 0.100000 0.000000 
 0.960000 0.100000 0.000000 
 0.980000 0.100000 0.000000 
 1.000000 0.100000 0.000000 
 0.000000 0.120000 0.000000 
 0.020000 0.120000 0.000000 
 0.040000 0.120000 0.000000 
 0.060000 0.120000 0.000000 
 0.080000 0.120000 0.000000 
 0.100000 0.120000 0.000000 
 0.120000 0.120000 0.000000 
 0.140000 0.120000 0.000000 
 0.160000 0.120000 0.000000 
 0.180000 0.120000 0.000000 
 0.200000 0.120000 0.000000 
 0.220000 0.120000 0.000000 
 0.240000 0.120000 0.000000 
 0.260000 0.120000 0.000000 
 0.280000 0.120000 0.000000 
 0.300000 0.120000 0.000000 
 0.320000 0.120000 0.000000 
 0.340000 0.120000 0.000000 
 0.360000 0.120000 0.000000 
 0.380000 0.120000 0.000000 
 0.400000 0.120000 0.000000 
 0.420000 0.120000 0.000000 
 0.440000 0.120000 0.000000 
 0.460000 0.120000 0.000000 
 0.480000 0.120000 0.000000 
 0.500000 0.120000 0.000000 
 0.520000 0.120000 0.000000 
 0.540000 0.120000 0.000000 
 0.560000 0.120000 0.000000 
 0.580000 0.120000 0.000000 
 0.600000 0.120000 0.000000 
[...]
<PointData  Scalars="U"> 
<DataArray  type="Float64"  Name="U"  format="ascii"> 
 0.000000e+00
 0.000000e+00
 0.000000e+00
 0.000000e+00
 0.000000e+00
 0.000000e+00
 0.000000e+00
 0.000000e+00
 0.000000e+00
 0.000000e+00
 0.000000e+00
 0.000000e+00
 0.000000e+00
 0.000000e+00
 0.000000e+00
 0.000000e+00
 0.000000e+00
 0.000000e+00
 0.000000e+00
 0.000000e+00
 0.000000e+00
 0.000000e+00
 0.000000e+00
 0.000000e+00
 0.000000e+00
 0.000000e+00
 0.000000e+00
 0.000000e+00
 0.000000e+00
 0.000000e+00
 0.000000e+00
 0.000000e+00
 0.000000e+00
 0.000000e+00
 0.000000e+00
 0.000000e+00
 0.000000e+00
 0.000000e+00
 0.000000e+00
 0.000000e+00
 0.000000e+00
 0.000000e+00
 0.000000e+00
 0.000000e+00
 0.000000e+00
 0.000000e+00
 0.000000e+00
 0.000000e+00
 0.000000e+00
 0.000000e+00
 0.000000e+00
 0.000000e+00
 4.338319e-06
 1.294947e-05
 1.276467e-05
 9.879525e-06
 1.471686e-05
 1.492525e-05
 8.173030e-06
 1.359643e-05
 1.491476e-05
 1.183775e-05
 1.768498e-05
 1.645759e-05
 1.499208e-05
 1.584807e-05
 2.765175e-05
 3.152111e-05
 3.640807e-05
 3.560139e-05
 3.804454e-05
 3.990832e-05
 2.551387e-05
 1.954973e-05
 1.654744e-05
 -2.461446e-06
 -2.077245e-05
 -1.560884e-05
 5.668436e-06
 2.158602e-05
 1.783131e-05
 3.706324e-07
 -8.249673e-06
 4.538195e-06
 2.373389e-05
 2.247210e-05
 1.877802e-05
 1.792936e-05
 3.219390e-05
 2.393823e-05
 7.535295e-06
 1.292196e-05
 1.873941e-05
 1.658853e-05
 1.525583e-05
 1.136004e-06
 -1.424309e-05
 -1.764800e-05
 -1.541147e-05
 -7.484073e-06
 5.970093e-05
 0.000000e+00
 0.000000e+00
 6.768617e-06
 1.206069e-05
 1.306615e-05
 1.298540e-05
 1.348997e-05
 1.317279e-05
 1.243100e-05
 1.314376e-05
 1.373813e-05
 1.429556e-05
 1.543579e-05
 1.614609e-05
 1.675667e-05
 1.911284e-05
 2.317796e-05
 2.673368e-05
 2.907024e-05
 2.999012e-05
 3.018657e-05
 2.811561e-05
 2.295033e-05
 1.752836e-05
 1.135230e-05
 2.991410e-06
 -3.146819e-06
 -1.905256e-06
 4.840409e-06
 1.033696e-05
 9.866391e-06
 5.663711e-06
 4.064872e-06
 8.448026e-06
 1.430338e-05
 1.680846e-05
 1.702385e-05
 1.821747e-05
 1.980575e-05
 1.730046e-05
 1.334026e-05
 1.260365e-05
 1.291878e-05
 1.163414e-05
 8.000919e-06
 1.414088e-06
 -4.988168e-06
 -7.775223e-06
 -5.752693e-06
 4.751559e-06
 -1.925951e-05
 0.000000e+00
 0.000000e+00
 1.645952e-05
 1.598878e-05
 1.505917e-05
 1.435877e-05
 1.398971e-05
 1.367690e-05
 1.348362e-05
 1.369523e-05
 1.412726e-05
 1.470777e-05
 1.547303e-05
 1.631416e-05
 1.741490e-05
 1.918318e-05
 2.150129e-05
 2.367522e-05
 2.516776e-05
 2.574185e-05
 2.528190e-05
 2.341770e-05
 2.012033e-05
 1.601813e-05
 1.140356e-05
 6.723110e-06
 3.614406e-06
 3.531671e-06
 5.752144e-06
 7.890183e-06
 8.255420e-06
 7.464695e-06
 7.537479e-06
 9.492419e-06
 1.217669e-05
 1.406324e-05
 1.503029e-05
 1.567527e-05
 1.577688e-05
 1.461734e-05
 1.286344e-05
 1.161634e-05
 1.057880e-05
 8.858181e-06
 5.976405e-06
 2.147143e-06
 -1.390992e-06
 -3.250966e-06
 -2.899598e-06
 1.168111e-06
 -8.771271e-05
 0.000000e+00
 0.000000e+00
 2.964943e-05
 2.000235e-05
 1.679784e-05
 1.528891e-05
 1.452853e-05
 1.413049e-05
 1.398202e-05
 1.408483e-05
 1.439560e-05
 1.487411e-05
 1.550605e-05
 1.628969e-05
 1.728991e-05
 1.857377e-05
 2.002793e-05
 2.134834e-05
 2.222389e-05
 2.243829e-05
 2.184399e-05
 2.033362e-05
 1.796721e-05
 1.501562e-05
 1.182124e-05
 8.876738e-06
 6.891021e-06
 6.329305e-06
 6.886413e-06
 7.687162e-06
 8.083681e-06
 8.200772e-06
 8.649416e-06
 9.751454e-06
 1.117610e-05
 1.238538e-05
 1.315818e-05
 1.351237e-05
 1.336952e-05
 1.263583e-05
 1.152482e-05
 1.033378e-05
 9.024325e-06
 7.333823e-06
 5.126949e-06
 2.613283e-06
 3.520187e-07
 -1.112106e-06
 -1.918805e-06
 -5.672117e-06
 -5.357532e-05
 0.000000e+00
 0.000000e+00
 2.874972e-05
 2.032006e-05
 1.708750e-05
 1.553749e-05
 1.475127e-05
 1.435597e-05
 1.421157e-05
 1.427012e-05
 1.450234e-05
 1.488470e-05
 1.540314e-05
 1.605444e-05
 1.684453e-05
 1.775478e-05
 1.869144e-05
 1.948613e-05
 1.995363e-05
 1.994262e-05
 1.935301e-05
 1.815032e-05
 1.640024e-05
 1.427886e-05
 1.204652e-05
 1.003493e-05
 8.589064e-06
 7.892654e-06
 7.823452e-06
 8.045490e-06
 8.289156e-06
 8.543216e-06
 8.969361e-06
 9.651730e-06
 1.046689e-05
 1.119292e-05
 1.167198e-05
 1.183213e-05
 1.162795e-05
 1.105348e-05
 1.018765e-05
 9.126425e-06
 7.878120e-06
 6.387473e-06
 4.655432e-06
 2.830414e-06
 1.198727e-06
 7.813364e-08
 -1.917792e-07
 3.964350e-06
 1.714175e-05
 0.000000e+00
 0.000000e+00
 2.031662e-05
 1.718094e-05
 1.588868e-05
 1.510151e-05
 1.461799e-05
 1.434459e-05
 1.423917e-05
 1.428246e-05
 1.446076e-05
 1.476075e-05
 1.517012e-05
 1.567714e-05
 1.626465e-05
 1.689491e-05
 1.749459e-05
 1.795799e-05
 1.817052e-05
 1.803540e-05
 1.749271e-05
 1.653438e-05
 1.521742e-05
 1.366594e-05
 1.205798e-05
 1.060014e-05
 9.478504e-06
 8.786652e-06
 8.483256e-06
 8.434678e-06
 8.518651e-06
 8.696357e-06
 8.989974e-06
 9.401306e-06
 9.863041e-06
 1.026456e-05
 1.050582e-05
 1.052108e-05
 1.027554e-05
 9.766972e-06
 9.026229e-06
 8.092528e-06
 6.984816e-06
 5.710114e-06
 4.303409e-06
 2.858435e-06
 1.522389e-06
 4.831111e-07
 9.525819e-08
 2.756446e-06
 -1.047847e-04
 0.000000e+00
 0.000000e+00
 9.780062e-06
 1.316942e-05
 1.422234e-05
 1.437746e-05
 1.428266e-05
 1.416881e-05
 1.411855e-05
 1.415972e-05
 1.429773e-05
 1.452762e-05
 1.483887e-05
 1.521601e-05
 1.563546e-05
 1.605955e-05
 1.643249e-05
 1.668399e-05
 1.674130e-05
 1.654435e-05
 1.605926e-05
 1.528876e-05
 1.427831e-05
 1.311496e-05
 1.191687e-05
 1.081296e-05
 9.912851e-06
 9.274708e-06
 8.891182e-06
 8.708412e-06
 8.666537e-06
 8.728993e-06
 8.878753e-06
 9.092430e-06
 9.322404e-06
 9.503094e-06
 9.570421e-06
 9.476125e-06
 9.192709e-06
 8.714265e-06
 8.053060e-06
 7.229589e-06
 6.263498e-06
 5.175788e-06
 3.999282e-06
 2.781460e-06
 1.564578e-06
 3.383636e-07
 -1.045881e-06
 -2.149938e-06
 -3.594183e-05
 0.000000e+00
 0.000000e+00
 5.138445e-06
 1.142237e-05
 1.328853e-05
 1.384555e-05
 1.394568e-05
 1.392171e-05
 1.390325e-05
 1.393856e-05
 1.404199e-05
 1.421244e-05
 1.444047e-05
 1.471018e-05
 1.499835e-05
 1.527266e-05
 1.549133e-05
 1.560637e-05
 1.557080e-05
 1.534764e-05
 1.491856e-05
 1.429029e-05
 1.349754e-05
 1.260082e-05
 1.167848e-05
 1.081291e-05
 1.007323e-05
 9.499674e-06
 9.097723e-06
 8.846240e-06
 8.714067e-06
 8.672962e-06
 8.698744e-06
 8.763863e-06
 8.831538e-06
 8.857943e-06
 8.800173e-06
 8.623988e-06
 8.308186e-06
 7.845686e-06
 7.241625e-06
 6.509192e-06
 5.665990e-06
 4.733394e-06
 3.736399e-06
 2.695478e-06
 1.595902e-06
 3.020724e-07
 -1.661796e-06
 -4.280136e-06
 -5.426862e-05
 0.000000e+00
 0.000000e+00
 1.136028e-05
 1.268198e-05
 1.347115e-05
 1.369618e-05
 1.370353e-05
 1.365734e-05
 1.362919e-05
 1.364699e-05
 1.371795e-05
 1.383867e-05
 1.399921e-05
 1.418433e-05
 1.437342e-05
 1.454028e-05
 1.465388e-05
 1.468106e-05
 1.459105e-05
 1.436113e-05
 1.398184e-05
 1.346078e-05
 1.282386e-05
 1.211312e-05
 1.138107e-05
 1.068187e-05
 1.006127e-05
 9.548321e-06
 9.152250e-06
 8.865632e-06
 8.671486e-06
 8.549413e-06
 8.477588e-06
 8.431385e-06
 8.382122e-06
 8.298524e-06
 8.150602e-06
 7.913903e-06
 7.572475e-06
 7.119996e-06
 6.559188e-06
 5.900148e-06
 5.158685e-06
 4.355209e-06
 3.512857e-06
 2.651481e-06
 1.771879e-06
 8.107072e-07
 -5.818326e-07
 -7.311951e-06
 -1.463974e-06
 0.000000e+00
 0.000000e+00
 1.735394e-05
 1.508582e-05
 1.416682e-05
 1.373523e-05
 1.350075e-05
 1.336834e-05
 1.330606e-05
 1.330064e-05
 1.334314e-05
 1.342424e-05
 1.353248e-05
 1.365354e-05
 1.376987e-05
 1.386074e-05
 1.390325e-05
 1.387426e-05
 1.375349e-05
 1.352691e-05
 1.319002e-05
 1.274994e-05
 1.222582e-05
 1.164704e-05
 1.104936e-05
 1.046929e-05
 9.938135e-06
 9.477201e-06
 9.095762e-06
 8.792123e-06
 8.556702e-06
 8.375139e-06
 8.230044e-06
 8.101459e-06
 7.967247e-06
 7.804392e-06
 7.591278e-06
 7.310202e-06
 6.949355e-06
 6.503863e-06
 5.975911e-06
 5.374304e-06
 4.713955e-06
 4.015598e-06
 3.305709e-06
 2.617481e-06
 2.000829e-06
 1.586867e-06
 1.963265e-06
 8.886978e-06
 7.081732e-05
 0.000000e+00
 0.000000e+00
 2.264420e-05
 1.636890e-05
 1.445413e-05
 1.360410e-05
 1.320433e-05
 1.301166e-05
 1.292656e-05
 1.290622e-05
 1.292938e-05
 1.298218e-05
 1.305237e-05
 1.312695e-05
 1.319136e-05
 1.322951e-05
 1.322455e-05
 1.316032e-05
 1.302333e-05
 1.280498e-05
 1.250346e-05
 1.212493e-05
 1.168353e-05
 1.120002e-05
 1.069914e-05
 1.020606e-05
 9.742678e-06
 9.324697e-06
 8.960163e-06
 8.649647e-06
 8.387593e-06
 8.163973e-06
 7.965593e-06
 7.776984e-06
 7.581241e-06
 7.361190e-06
 7.100927e-06
 6.787456e-06
 6.412074e-06
 5.971292e-06
 5.467297e-06
 4.908171e-06
 4.308180e-06
 3.688499e-06
 3.078752e-06
 2.520228e-06
 2.073149e-06
 1.836665e-06
 2.028283e-06
 4.582036e-06
 -1.207789e-04
 0.000000e+00
 0.000000e+00
 1.855498e-05
 1.535351e-05
 1.381842e-05
 1.307494e-05
 1.272159e-05
 1.255560e-05
 1.248542e-05
 1.246931e-05
 1.248615e-05
 1.252258e-05
 1.256759e-05
 1.261024e-05
 1.263895e-05
 1.264149e-05
 1.260557e-05
 1.251995e-05
 1.237570e-05
 1.216758e-05
 1.189528e-05
 1.156393e-05
 1.118403e-05
 1.077044e-05
 1.034056e-05
 9.912054e-06
 9.500492e-06
 9.117468e-06
 8.769518e-06
 8.457974e-06
 8.179537e-06
 7.927189e-06
 7.691122e-06
 7.459586e-06
 7.219751e-06
 6.958691e-06
 6.664513e-06
 6.327504e-06
 5.941147e-06
 5.502914e-06
 5.014835e-06
 4.484031e-06
 3.923464e-06
 3.353314e-06
 2.803470e-06
 2.317029e-06
 1.948907e-06
 1.715092e-06
 1.206736e-06
 -4.144752e-06
 3.537634e-07
 0.000000e+00
 0.000000e+00
 1.494813e-05
 1.294737e-05
 1.243171e-05
 1.219090e-05
 1.206863e-05
 1.201114e-05
 1.199321e-05
 1.200059e-05
 1.202364e-05
 1.205438e-05
 1.208502e-05
 1.210737e-05
 1.211271e-05
 1.209207e-05
 1.203669e-05
 1.193885e-05
 1.179274e-05
 1.159532e-05
 1.134706e-05
 1.105221e-05
 1.071867e-05
 1.035721e-05
 9.980254e-06
 9.600411e-06
 9.228895e-06
 8.874277e-06
 8.541687e-06
 8.232575e-06
 7.944931e-06
 7.673802e-06
 7.411935e-06
 7.150467e-06
 6.879656e-06
 6.589678e-06
 6.271471e-06
 5.917568e-06
 5.522861e-06
 5.085224e-06
 4.606053e-06
 4.090825e-06
 3.549906e-06
 3.000058e-06
 2.467482e-06
 1.994301e-06
 1.653568e-06
 1.591597e-06
 2.211219e-06
 7.218379e-06
 1.853406e-05
 0.000000e+00
 0.000000e+00
 8.594280e-06
 9.889315e-06
 1.082241e-05
 1.119995e-05
 1.135471e-05
 1.142875e-05
 1.147638e-05
 1.151642e-05
 1.155346e-05
 1.158620e-05
 1.161065e-05
 1.162144e-05
 1.161250e-05
 1.157754e-05
 1.151058e-05
 1.140650e-05
 1.126168e-05
 1.107455e-05
 1.084603e-05
 1.057969e-05
 1.028152e-05
 9.959481e-06
 9.622598e-06
 9.279985e-06
 8.939812e-06
 8.608431e-06
 8.289794e-06
 7.985214e-06
 7.693425e-06
 7.410882e-06
 7.132200e-06
 6.850674e-06
 6.558856e-06
 6.249165e-06
 5.914519e-06
 5.548939e-06
 5.148091e-06
 4.709740e-06
 4.234128e-06
 3.724337e-06
 3.186764e-06
 2.631989e-06
 2.076707e-06
 1.549157e-06
 1.108001e-06
 9.188497e-07
 1.573384e-06
 6.874810e-06
 -8.600100e-05
 0.000000e+00
 0.000000e+00
 1.863409e-06
 7.968134e-06
 9.714253e-06
 1.040093e-05
 1.070858e-05
 1.086764e-05
 1.096510e-05
 1.103438e-05
 1.108717e-05
 1.112611e-05
 1.114983e-05
 1.115520e-05
 1.113834e-05
 1.109516e-05
 1.102184e-05
 1.091524e-05
 1.077335e-05
 1.059562e-05
 1.038326e-05
 1.013931e-05
 9.868438e-06
 9.576614e-06
 9.270508e-06
 8.956809e-06
 8.641528e-06
 8.329390e-06
 8.023410e-06
 7.724678e-06
 7.432364e-06
 7.143880e-06
 6.855184e-06
 6.561152e-06
 6.256012e-06
 5.933792e-06
 5.588778e-06
 5.215929e-06
 4.811237e-06
 4.371988e-06
 3.896927e-06
 3.386302e-06
 2.841773e-06
 2.266084e-06
 1.662159e-06
 1.030551e-06
 3.616847e-07
 -3.894709e-07
 -1.383522e-06
 -6.049141e-07
 -7.060893e-05
 0.000000e+00
 0.000000e+00
 7.493421e-06
 8.655522e-06
 9.462572e-06
 9.924093e-06
 1.019132e-05
 1.036043e-05
 1.047886e-05
 1.056746e-05
 1.063417e-05
 1.068097e-05
 1.070723e-05
 1.071117e-05
 1.069055e-05
 1.064304e-05
 1.056657e-05
 1.045953e-05
 1.032114e-05
 1.015161e-05
 9.952378e-06
 9.726068e-06
 9.476427e-06
 9.208031e-06
 8.925894e-06
 8.634997e-06
 8.339810e-06
 8.043865e-06
 7.749450e-06
 7.457431e-06
 7.167227e-06
 6.876910e-06
 6.583394e-06
 6.282706e-06
 5.970291e-06
 5.641328e-06
 5.291045e-06
 4.914982e-06
 4.509185e-06
 4.070302e-06
 3.595531e-06
 3.082365e-06
 2.528009e-06
 1.928134e-06
 1.273983e-06
 5.446012e-07
 -3.180684e-07
 -1.502964e-06
 -3.728925e-06
 -1.136144e-05
 -7.302541e-05
 0.000000e+00
 0.000000e+00
 1.291252e-05
 9.841147e-06
 9.559164e-06
 9.629113e-06
 9.764136e-06
 9.899752e-06
 1.002047e-05
 1.012156e-05
 1.020066e-05
 1.025619e-05
 1.028688e-05
 1.029169e-05
 1.026967e-05
 1.021998e-05
 1.014199e-05
 1.003536e-05
 9.900264e-06
 9.737532e-06
 9.548754e-06
 9.336300e-06
 9.103246e-06
 8.853184e-06
 8.589952e-06
 8.317317e-06
 8.038637e-06
 7.756571e-06
 7.472849e-06
 7.188139e-06
 6.902011e-06
 6.612988e-06
 6.318677e-06
 6.015944e-06
 5.701125e-06
 5.370239e-06
 5.019182e-06
 4.643871e-06
 4.240315e-06
 3.804563e-06
 3.332500e-06
 2.819399e-06
 2.259133e-06
 1.642778e-06
 9.561985e-07
 1.758758e-07
 -7.373864e-07
 -1.842066e-06
 -3.185944e-06
 -5.339899e-06
 6.707953e-05
 0.000000e+00
 0.000000e+00
 1.050585e-05
 9.899851e-06
 9.419543e-06
 9.294316e-06
 9.341992e-06
 9.455180e-06
 9.582003e-06
 9.697722e-06
 9.790802e-06
 9.856283e-06
 9.892444e-06
 9.899052e-06
 9.876477e-06
 9.825286e-06
 9.746127e-06
 9.639757e-06
 9.507154e-06
 9.349632e-06
 9.168925e-06
 8.967222e-06
 8.747117e-06
 8.511494e-06
 8.263347e-06
 8.005562e-06
 7.740692e-06
 7.470752e-06
 7.197050e-06
 6.920090e-06
 6.639534e-06
 6.354232e-06
 6.062294e-06
 5.761216e-06
 5.448008e-06
 5.119328e-06
 4.771590e-06
 4.401017e-06
 4.003619e-06
 3.575045e-06
 3.110286e-06
 2.603161e-06
 2.045523e-06
 1.426156e-06
 7.295625e-07
 -6.371854e-08
 -9.667399e-07
 -1.921654e-06
 -2.435779e-06
 2.787181e-06
 -1.888516e-05
 0.000000e+00
 0.000000e+00
 1.157136e-05
 9.407602e-06
 8.924083e-06
 8.803336e-06
 8.863007e-06
 9.001082e-06
 9.156656e-06
 9.297543e-06
 9.409036e-06
 9.485922e-06
 9.527644e-06
 9.535623e-06
 9.511910e-06
 9.458575e-06
 9.377512e-06
 9.270447e-06
 9.139038e-06
 8.984992e-06
 8.810162e-06
 8.616594e-06
 8.406525e-06
 8.182311e-06
 7.946322e-06
 7.700799e-06
 7.447701e-06
 7.188559e-06
 6.924366e-06
 6.655498e-06
 6.381682e-06
 6.102006e-06
 5.814971e-06
 5.518561e-06
 5.210323e-06
 4.887445e-06
 4.546798e-06
 4.184934e-06
 3.797995e-06
 3.381523e-06
 2.930120e-06
 2.436930e-06
 1.892911e-06
 1.285921e-06
 5.997274e-07
 -1.867767e-07
 -1.100597e-06
 -2.188405e-06
 -3.677204e-06
 -9.521394e-06
 -5.474384e-05
 0.000000e+00
 0.000000e+00
 8.207949e-06
 8.208356e-06
 8.104119e-06
 8.140734e-06
 8.312509e-06
 8.534239e-06
 8.748805e-06
 8.928252e-06
 9.062592e-06
 9.151020e-06
 9.196670e-06
 9.203880e-06
 9.176932e-06
 9.119562e-06
 9.034887e-06
 8.925489e-06
 8.793583e-06
 8.641170e-06
 8.470169e-06
 8.282492e-06
 8.080080e-06
 7.864881e-06
 7.638785e-06
 7.403542e-06
 7.160661e-06
 6.911312e-06
 6.656249e-06
 6.395748e-06
 6.129589e-06
 5.857052e-06
 5.576952e-06
 5.287673e-06
 4.987227e-06
 4.673279e-06
 4.343161e-06
 3.993829e-06
 3.621752e-06
 3.222695e-06
 2.791384e-06
 2.321013e-06
 1.802581e-06
 1.224065e-06
 5.693254e-07
 -1.840837e-07
 -1.072993e-06
 -2.182833e-06
 -3.763430e-06
 -6.424070e-06
 8.455489e-05
 0.000000e+00
 0.000000e+00
 7.531318e-06
 7.173921e-06
 7.065995e-06
 7.340842e-06
 7.718364e-06
 8.079549e-06
 8.378964e-06
 8.605490e-06
 8.762650e-06
 8.859060e-06
 8.904103e-06
 8.906197e-06
 8.872265e-06
 8.807766e-06
 8.716921e-06
 8.603005e-06
 8.468623e-06
 8.315939e-06
 8.146856e-06
 7.963126e-06
 7.766416e-06
 7.558324e-06
 7.340353e-06
 7.113865e-06
 6.880018e-06
 6.639701e-06
 6.393484e-06
 6.141574e-06
 5.883795e-06
 5.619592e-06
 5.348046e-06
 5.067898e-06
 4.777578e-06
 4.475222e-06
 4.158658e-06
 3.825357e-06
 3.472320e-06
 3.095870e-06
 2.691348e-06
 2.252657e-06
 1.771668e-06
 1.237486e-06
 6.357314e-07
 -5.188251e-08
 -8.472299e-07
 -1.773816e-06
 -2.837053e-06
 -5.467011e-06
 -2.102191e-06
 0.000000e+00
 0.000000e+00
 8.499108e-06
 5.227420e-06
 5.701561e-06
 6.461619e-06
 7.151809e-06
 7.691851e-06
 8.084186e-06
 8.352809e-06
 8.523521e-06
 8.618272e-06
 8.654226e-06
 8.644288e-06
 8.597959e-06
 8.522159e-06
 8.421916e-06
 8.300916e-06
 8.161921e-06
 8.007085e-06
 7.838177e-06
 7.656728e-06
 7.464119e-06
 7.261623e-06
 7.050405e-06
 6.831503e-06
 6.605790e-06
 6.373930e-06
 6.136350e-06
 5.893203e-06
 5.644363e-06
 5.389420e-06
 5.127692e-06
 4.858246e-06
 4.579917e-06
 4.291314e-06
 3.990814e-06
 3.676514e-06
 3.346139e-06
 2.996883e-06
 2.625144e-06
 2.226142e-06
 1.793359e-06
 1.317809e-06
 7.873685e-07
 1.876470e-07
 -4.896102e-07
 -1.212125e-06
 -1.833321e-06
 -3.905054e-06
 8.610844e-05
 0.000000e+00
 0.000000e+00
 -2.379233e-06
 2.123550e-06
 4.171088e-06
 5.688426e-06
 6.746378e-06
 7.454511e-06
 7.913099e-06
 8.197288e-06
 8.359523e-06
 8.435564e-06
 8.449674e-06
 8.418343e-06
 8.352813e-06
 8.260775e-06
 8.147518e-06
 8.016722e-06
 7.870997e-06
 7.712266e-06
 7.542017e-06
 7.361473e-06
 7.171692e-06
 6.973622e-06
 6.768114e-06
 6.555919e-06
 6.337666e-06
 6.113835e-06
 5.884733e-06
 5.650479e-06
 5.410990e-06
 5.165989e-06
 4.915016e-06
 4.657441e-06
 4.392491e-06
 4.119260e-06
 3.836710e-06
 3.543657e-06
 3.238713e-06
 2.920187e-06
 2.585919e-06
 2.232996e-06
 1.857271e-06
 1.452490e-06
 1.008692e-06
 5.097565e-07
 -6.678319e-08
 -7.222992e-07
 -1.215242e-06
 4.746015e-07
 3.425589e-05
 0.000000e+00
 0.000000e+00
 -4.547912e-06
 -4.443964e-07
 3.185396e-06
 5.381379e-06
 6.687904e-06
 7.462109e-06
 7.912574e-06
 8.160976e-06
 8.279849e-06
 8.313526e-06
 8.289711e-06
 8.226021e-06
 8.133785e-06
 8.020347e-06
 7.890487e-06
 7.747345e-06
 7.593010e-06
 7.428922e-06
 7.256126e-06
 7.075437e-06
 6.887540e-06
 6.693042e-06
 6.492490e-06
 6.286369e-06
 6.075092e-06
 5.858978e-06
 5.638237e-06
 5.412956e-06
 5.183097e-06
 4.948505e-06
 4.708917e-06
 4.463990e-06
 4.213326e-06
 3.956498e-06
 3.693077e-06
 3.422644e-06
 3.144792e-06
 2.859113e-06
 2.565154e-06
 2.262320e-06
 1.949651e-06
 1.625160e-06
 1.283700e-06
 9.099668e-07
 4.555803e-07
 -2.348624e-07
 -1.662586e-06
 -7.311714e-06
 1.625062e-05
 0.000000e+00
 0.000000e+00
 -1.270909e-05
 -9.509168e-07
 3.622174e-06
 5.925878e-06
 7.137521e-06
 7.779715e-06
 8.106371e-06
 8.249737e-06
 8.282730e-06
 8.247367e-06
 8.168617e-06
 8.061602e-06
 7.935548e-06
 7.796074e-06
 7.646570e-06
 7.489054e-06
 7.324713e-06
 7.154250e-06
 6.978106e-06
 6.796596e-06
 6.609980e-06
 6.418507e-06
 6.222421e-06
 6.021959e-06
 5.817336e-06
 5.608728e-06
 5.396259e-06
 5.179990e-06
 4.959921e-06
 4.736001e-06
 4.508147e-06
 4.276271e-06
 4.040324e-06
 3.800333e-06
 3.556460e-06
 3.309049e-06
 3.058691e-06
 2.806301e-06
 2.553211e-06
 2.301338e-06
 2.053436e-06
 1.813458e-06
 1.586604e-06
 1.376603e-06
 1.168266e-06
 8.411986e-07
 -2.310637e-07
 -8.707024e-06
 1.038670e-04
 0.000000e+00
 0.000000e+00
 -4.534770e-06
 3.063671e-06
 6.082849e-06
 7.470005e-06
 8.117090e-06
 8.394582e-06
 8.474394e-06
 8.444081e-06
 8.351295e-06
 8.223035e-06
 8.074849e-06
 7.915644e-06
 7.750371e-06
 7.581610e-06
 7.410533e-06
 7.237513e-06
 7.062496e-06
 6.885238e-06
 6.705447e-06
 6.522859e-06
 6.337278e-06
 6.148583e-06
 5.956725e-06
 5.761704e-06
 5.563556e-06
 5.362329e-06
 5.158070e-06
 4.950814e-06
 4.740591e-06
 4.527432e-06
 4.311404e-06
 4.092638e-06
 3.871386e-06
 3.648082e-06
 3.423421e-06
 3.198453e-06
 2.974693e-06
 2.754281e-06
 2.540187e-06
 2.336585e-06
 2.149553e-06
 1.988661e-06
 1.870812e-06
 1.829994e-06
 1.942639e-06
 2.396134e-06
 3.694442e-06
 5.531713e-06
 1.418199e-04
 0.000000e+00
 0.000000e+00
 1.187883e-05
 1.048853e-05
 9.972068e-06
 9.681812e-06
 9.437828e-06
 9.194658e-06
 8.946484e-06
 8.697696e-06
 8.453536e-06
 8.217575e-06
 7.991470e-06
 7.775375e-06
 7.568459e-06
 7.369333e-06
 7.176372e-06
 6.987939e-06
 6.802512e-06
 6.618765e-06
 6.435595e-06
 6.252128e-06
 6.067701e-06
 5.881833e-06
 5.694196e-06
 5.504578e-06
 5.312854e-06
 5.118961e-06
 4.922876e-06
 4.724607e-06
 4.524199e-06
 4.321745e-06
 4.117419e-06
 3.911521e-06
 3.704542e-06
 3.497245e-06
 3.290768e-06
 3.086748e-06
 2.887485e-06
 2.696133e-06