<VTKFile type="UnstructuredGrid"  version="0.1"   >
<UnstructuredGrid>  
<Piece  NumberOfPoints="     2601"  NumberOfCells="     5000">  
<Points>  
<DataArray  type="Float64"  NumberOfComponents="3"  format="ascii">  
 0.000000 0.000000 0.000000 
 0.020000 0.000000 0.000000 
 0.040000 0.000000 0.000000 
 0.060000 0.000000 0.000000 
 0.080000 0.000000 0.000000 
 0.100000 0.000000 0.000000 
 0.120000 0.000000 0.000000 
 0.140000 0.000000 0.000000 
 0.160000 0.000000 0.000000 
 0.180000 0.000000 0.000000 
 0.200000 0.000000 0.000000 
 0.220000 0.000000 0.000000 
 0.240000 0.000000 0.000000 
 0.260000 0.000000 0.000000 
 0.280000 0.000000 0.000000 
 0.300000 0.000000 0.000000 
 0.320000 0.000000 0.000000 
 0.340000 0.000000 0.000000 
 0.360000 0.000000 0.000000 
 0.380000 0.000000 0.000000 
 0.400000 0.000000 0.000000 
 0.420000 0.000000 0.000000 
 0.440000 0.000000 0.000000 
 0.460000 0.000000 0.000000 
 0.480000 0.000000 0.000000 
 0.500000 0.000000 0.000000 
 0.520000 0.000000 0.000000 
 0.540000 0.000000 0.000000 
 0.560000 0.000000 0.000000 
 0.580000 0.000000 0.000000 
 0.600000 0.000000 0.000000 
 0.620000 0.000000 0.000000 
 0.640000 0.000000 0.000000 
 0.660000 0.000000 0.000000 
 0.680000 0.000000 0.000000 
 0.700000 0.000000 0.000000 
 0.720000 0.000000 0.000000 
 0.740000 0.000000 0.000000 
 0.760000 0.000000 0.000000 
 0.780000 0.000000 0.000000 
 0.800000 0.000000 0.000000 
 0.820000 0.000000 0.000000 
 0.840000 0.000000 0.000000 
 0.860000 0.000000 0.000000 
 0.880000 0.000000 0.000000 
 0.900000 0.000000 0.000000 
 0.920000 0.000000 0.000000 
 0.940000 0.000000 0.000000 
 0.960000 0.000000 0.000000 
 0.980000 0.000000 0.000000 
 1.000000 0.000000 0.000000 
 0.000000 0.020000 0.000000 
 0.020000 0.020000 0.000000 
 0.040000 0.020000 0.000000 
 0.060000 0.020000 0.000000 
 0.080000 0.020000 0.000000 
 0.100000 0.020000 0.000000 
 0.120000 0.020000 0.000000 
 0.140000 0.020000 0.000000 
 0.160000 0.020000 0.000000 
 0.180000 0.020000 0.000000 
 0.200000 0.020000 0.000000 
 0.220000 0.020000 0.000000 
 0.240000 0.020000 0.000000 
 0.260000 0.020000 0.000000 
 0.280000 0.020000 0.000000 
 0.300000 0.020000 0.000000 
 0.320000 0.020000 0.000000 
 0.340000 0.020000 0.000000 
 0.360000 0.020000 0.000000 
 0.380000 0.020000 0.000000 
 0.400000 0.020000 0.000000 
 0.420000 0.020000 0.000000 
 0.440000 0.020000 0.000000 
 0.460000 0.020000 0.000000 
 0.480000 0.020000 0.000000 
 0.500000 0.020000 0.000000 
 0.520000 0.020000 0.000000 
 0.540000 0.020000 0.000000 
 0.560000 0.020000 0.000000 
 0.580000 0.020000 0.000000 
 0.600000 0.020000 0.000000 
 0.620000 0.020000 0.000000 
 0.640000 0.020000 0.000000 
 0.660000 0.020000 0.000000 
 0.680000 0.020000 0.000000 
 0.700000 0.020000 0.000000 
 0.720000 0.020000 0.000000 
 0.740000 0.020000 0.000000 
 0.760000 0.020000 0.000000 
 0.780000 0.020000 0.000000 
 0.800000 0.020000 0.000000 
 0.820000 0.020000 0.000000 
 0.840000 0.020000 0.000000 
 0.860000 0.020000 0.000000 
 0.880000 0.020000 0.000000 
 0.900000 0.020000 0.000000 
 0.920000 0.020000 0.000000 
 0.940000 0.020000 0.000000 
 0.960000 0.020000 0.000000 
 0.980000 0.020000 0.000000 
 1.000000 0.020000 0.000000 
 0.000000 0.040000 0.000000 
 0.020000 0.040000 0.000000 
 0.040000 0.040000 0.000000 
 0.060000 0.040000 0.000000 
 0.080000 0.040000 0.000000 
 0.100000 0.040000 0.000000 
 0.120000 0.040000 0.000000 
 0.140000 0.040000 0.000000 
 0.160000 0.040000 0.000000 
 0.180000 0.040000 0.000000 
 0.200000 0.040000 0.000000 
 0.220000 0.040000 0.000000 
 0.240000 0.040000 0.000000 
 0.260000 0.040000 0.000000 
 0.280000 0.040000 0.000000 
 0.300000 0.040000 0.000000 
 0.320000 0.040000 0.000000 
 0.340000 0.040000 0.000000 
 0.360000 0.040000 0.000000 
 0.380000 0.040000 0.000000 
 0.400000 0.040000 0.000000 
 0.420000 0.040000 0.000000 
 0.440000 0.040000 0.000000 
 0.460000 0.040000 0.000000 
 0.480000 0.040000 0.000000 
 0.500000 0.040000 0.000000 
 0.520000 0.040000 0.000000 
 0.540000 0.040000 0.000000 
 0.560000 0.040000 0.000000 
 0.580000 0.040000 0.000000 
 0.600000 0.040000 0.000000 
 0.620000 0.040000 0.000000 
 0.640000 0.040000 0.000000 
 0.660000 0.040000 0.000000 
 0.680000 0.040000 0.000000 
 0.700000 0.040000 0.000000 
 0.720000 0.040000 0.000000 
 0.740000 0.040000 0.000000 
 0.760000 0.040000 0.000000 
 0.780000 0.040000 0.000000 
 0.800000 0.040000 0.000000 
 0.820000 0.040000 0.000000 
 0.840000 0.040000 0.000000 
 0.860000 0.040000 0.000000 
 0.880000 0.040000 0.000000 
 0.900000 0.040000 0.000000 
 0.920000 0.040000 0.000000 
 0.940000 0.040000 0.000000 
 0.960000 0.040000 0.000000 
 0.980000 0.040000 0.000000 
 1.000000 0.040000 0.000000 
 0.000000 0.060000 0.000000 
 0.020000 0.060000 0.000000 
 0.040000 0.060000 0.000000 
 0.060000 0.060000 0.000000 
 0.080000 0.060000 0.000000 
 0.100000 0.060000 0.000000 
 0.120000 0.060000 0.000000 
 0.140000 0.060000 0.000000 
 0.160000 0.060000 0.000000 
 0.180000 0.060000 0.000000 
 0.200000 0.060000 0.000000 
 0.220000 0.060000 0.000000 
 0.240000 0.060000 0.000000 
 0.260000 0.060000 0.000000 
 0.280000 0.060000 0.000000 
 0.300000 0.060000 0.000000 
 0.320000 0.060000 0.000000 
 0.340000 0.060000 0.000000 
 0.360000 0.060000 0.000000 
 0.380000 0.060000 0.000000 
 0.400000 0.060000 0.000000 
 0.420000 0.060000 0.000000 
 0.440000 0.060000 0.000000 
 0.460000 0.060000 0.000000 
 0.480000 0.060000 0.000000 
 0.500000 0.060000 0.000000 
 0.520000 0.060000 0.000000 
 0.540000 0.060000 0.000000 
 0.560000 0.060000 0.000000 
 0.580000 0.060000 0.000000 
 0.600000 0.060000 0.000000 
 0.620000 0.060000 0.000000 
 0.640000 0.060000 0.000000 
 0.660000 0.060000 0.000000 
 0.680000 0.060000 0.000000 
 0.700000 0.060000 0.000000 
 0.720000 0.060000 0.000000 
 0.740000 0.060000 0.000000 
 0.760000 0.060000 0.000000 
 0.780000 0.060000 0.000000 
 0.800000 0.060000 0.000000 
 0.820000 0.060000 0.000000 
 0.840000 0.060000 0.000000 
 0.860000 0.060000 0.000000 
 0.880000 0.060000 0.000000 
 0.900000 0.060000 0.000000 
 0.920000 0.060000 0.000000 
 0.940000 0.060000 0.000000 
 0.960000 0.060000 0.000000 
 0.980000 0.060000 0.000000 
 1.000000 0.060000 0.000000 
 0.000000 0.080000 0.000000 
 0.020000 0.080000 0.000000 
 0.040000 0.080000 0.000000 
 0.060000 0.080000 0.000000 
 0.080000 0.080000 0.000000 
 0.100000 0.080000 0.000000 
 0.120000 0.080000 0.000000 
 0.140000 0.080000 0.000000 
 0.160000 0.080000 0.000000 
 0.180000 0.080000 0.000000 
 0.200000 0.080000 0.000000 
 0.220000 0.080000 0.000000 
 0.240000 0.080000 0.000000 
 0.260000 0.080000 0.000000 
 0.280000 0.080000 0.000000 
 0.300000 0.080000 0.000000 
 0.320000 0.080000 0.000000 
 0.340000 0.080000 0.000000 
 0.360000 0.080000 0.000000 
 0.380000 0.080000 0.000000 
 0.400000 0.080000 0.000000 
 0.420000 0.080000 0.000000 
 0.440000 0.080000 0.000000 
 0.460000 0.080000 0.000000 
 0.480000 0.080000 0.000000 
 0.500000 0.080000 0.000000 
 0.520000 0.080000 0.000000 
 0.540000 0.080000 0.000000 
 0.560000 0.080000 0.000000 
 0.580000 0.080000 0.000000 
 0.600000 0.080000 0.000000 
 0.620000 0.080000 0.000000 
 0.640000 0.080000 0.000000 
 0.660000 0.080000 0.000000 
 0.680000 0.080000 0.000000 
 0.700000 0.080000 0.000000 
 0.720000 0.080000 0.000000 
 0.740000 0.080000 0.000000 
 0.760000 0.080000 0.000000 
 0.780000 0.080000 0.000000 
 0.800000 0.080000 0.000000 
 0.820000 0.080000 0.000000 
 0.840000 0.080000 0.000000 
 0.860000 0.080000 0.000000 
 0.880000 0.080000 0.000000 
 0.900000 0.080000 0.000000 
 0.920000 0.080000 0.000000 
 0.940000 0.080000 0.000000 
 0.960000 0.080000 0.000000 
 0.980000 0.080000 0.000000 
 1.000000 0.080000 0.000000 
 0.000000 0.100000 0.000000 
 0.020000 0.100000 0.000000 
 0.040000 0.100000 0.000000 
 0.060000 0.100000 0.000000 
 0.080000 0.100000 0.000000 
 0.100000 0.100000 0.000000 
 0.120000 0.100000 0.000000 
 0.140000 0.100000 0.000000 
 0.160000 0.100000 0.000000 
 0.180000 0.100000 0.000000 
 0.200000 0.100000 0.000000 
 0.220000 0.100000 0.000000 
 0.240000 0.100000 0.000000 
 0.260000 0.100000 0.000000 
 0.280000 0.100000 0.000000 
 0.300000 0.100000 0.000000 
 0.320000 0.100000 0.000000 
 0.340000 0.100000 0.000000 
 0.360000 0.100000 0.000000 
 0.380000 0.100000 0.000000 
 0.400000 0.100000 0.000000 
 0.420000 0.100000 0.000000 
 0.440000 0.100000 0.000000 
 0.460000 0.100000 0.000000 
 0.480000 0.100000 0.000000 
 0.500000 0.100000 0.000000 
 0.520000 0.100000 0.000000 
 0.540000 0.100000 0.000000 
 0.560000 0.100000 0.000000 
 0.580000 0.100000 0.000000 
 0.600000 0.100000 0.000000 
 0.620000 0.100000 0.000000 
 0.640000 0.100000 0.000000 
 0.660000 0.100000 0.000000 
 0.680000 0.100000 0.000000 
 0.700000 0.100000 0.000000 
 0.720000 0.100000 0.000000 
 0.740000 0.100000 0.000000 
 0.760000 0.100000 0.000000 
 0.780000 0.100000 0.000000 
 0.800000 0.100000 0.000000 
 0.820000 0.100000 0.000000 
 0.840000 0.100000 0.000000 
 0.860000 0.100000 0.000000 
 0.880000 0.100000 0.000000 
 0.900000 0.100000 0.000000 
 0.920000 0.100000 0.000000 
 0.940000 0.100000 0.000000 
 0.960000 0.100000 0.000000 
 0.980000 0.100000 0.000000 
 1.000000 0.100000 0.000000 
 0.000000 0.120000 0.000000 
 0.020000 0.120000 0.000000 
 0.040000 0.120000 0.000000 
 0.060000 0.120000 0.000000 
 0.080000 0.120000 0.000000 
 0.100000 0.120000 0.000000 
 0.120000 0.120000 0.000000 
 0.140000 0.120000 0.000000 
 0.160000 0.120000 0.000000 
 0.180000 0.120000 0.000000 
 0.200000 0.120000 0.000000 
 0.220000 0.120000 0.000000 
 0.240000 0.120000 0.000000 
 0.260000 0.120000 0.000000 
 0.280000 0.120000 0.000000 
 0.300000 0.120000 0.000000 
 0.320000 0.120000 0.000000 
 0.340000 0.120000 0.000000 
 0.360000 0.120000 0.000000 
 0.380000 0.120000 0.000000 
 0.400000 0.120000 0.000000 
 0.420000 0.120000 0.000000 
 0.440000 0.120000 0.000000 
 0.460000 0.120000 0.000000 
 0.480000 0.120000 0.000000 
 0.500000 0.120000 0.000000 
 0.520000 0.120000 0.000000 
 0.540000 0.120000 0.000000 
 0.560000 0.120000 0.000000 
 0.580000 0.120000 0.000000 
 0.600000 0.120000 0.000000 
[...]
<PointData  Scalars="U"> 
<DataArray  type="Float64"  Name="U"  format="ascii"> 
 0.000000e+00
 0.000000e+00
 0.000000e+00
 0.000000e+00
 0.000000e+00
 0.000000e+00
 0.000000e+00
 0.000000e+00
 0.000000e+00
 0.000000e+00
 0.000000e+00
 0.000000e+00
 0.000000e+00
 0.000000e+00
 0.000000e+00
 0.000000e+00
 0.000000e+00
 0.000000e+00
 0.000000e+00
 0.000000e+00
 0.000000e+00
 0.000000e+00
 0.000000e+00
 0.000000e+00
 0.000000e+00
 0.000000e+00
 0.000000e+00
 0.000000e+00
 0.000000e+00
 0.000000e+00
 0.000000e+00
 0.000000e+00
 0.000000e+00
 0.000000e+00
 0.000000e+00
 0.000000e+00
 0.000000e+00
 0.000000e+00
 0.000000e+00
 0.000000e+00
 0.000000e+00
 0.000000e+00
 0.000000e+00
 0.000000e+00
 0.000000e+00
 0.000000e+00
 0.000000e+00
 0.000000e+00
 0.000000e+00
 0.000000e+00
 0.000000e+00
 0.000000e+00
 7.322453e-06
 1.649577e-05
 1.450133e-05
 8.998897e-06
 8.759799e-06
 8.968884e-06
 7.028477e-06
 7.674061e-06
 1.284832e-05
 1.324895e-05
 1.812280e-05
 1.369009e-05
 6.592365e-06
 2.409651e-06
 1.195686e-05
 1.834140e-05
 2.206168e-05
 2.493512e-05
 2.633439e-05
 2.645594e-05
 2.088450e-05
 2.547232e-05
 2.653508e-05
 1.214701e-05
 -1.850358e-06
 -4.838777e-06
 -2.914091e-06
 5.450767e-07
 -6.656748e-06
 -1.734591e-05
 -1.875800e-05
 -1.411459e-05
 -3.796133e-06
 -1.384361e-06
 -2.680563e-06
 -8.442720e-06
 -2.770145e-06
 -5.077859e-06
 -9.994183e-06
 -3.931399e-06
 8.773185e-07
 7.772081e-06
 1.008160e-05
 6.643730e-06
 -1.992108e-06
 -5.663028e-06
 8.559620e-07
 6.493306e-06
 5.587955e-05
 0.000000e+00
 0.000000e+00
 -9.706771e-07
 7.681999e-06
 9.529691e-06
 8.913850e-06
 8.414990e-06
 8.251041e-06
 8.138755e-06
 9.025036e-06
 1.056849e-05
 1.197525e-05
 1.262509e-05
 1.139097e-05
 9.252272e-06
 9.048252e-06
 1.188417e-05
 1.538137e-05
 1.817752e-05
 2.003613e-05
 2.096275e-05
 2.056981e-05
 1.950122e-05
 1.890231e-05
 1.632426e-05
 1.019154e-05
 3.777595e-06
 1.246559e-07
 -1.160622e-06
 -2.422525e-06
 -5.797721e-06
 -9.484868e-06
 -1.068878e-05
 -8.744572e-06
 -5.574891e-06
 -3.716051e-06
 -3.841345e-06
 -4.388166e-06
 -3.990889e-06
 -4.302189e-06
 -4.300231e-06
 -2.343502e-06
 6.803789e-07
 3.472298e-06
 4.536369e-06
 3.184289e-06
 7.431197e-07
 7.825644e-08
 2.727888e-06
 8.641653e-06
 2.062959e-05
 0.000000e+00
 0.000000e+00
 1.500452e-06
 6.404403e-06
 7.812318e-06
 8.056760e-06
 8.035543e-06
 8.100984e-06
 8.369228e-06
 9.002698e-06
 9.885354e-06
 1.067498e-05
 1.101177e-05
 1.071788e-05
 1.028439e-05
 1.063058e-05
 1.209139e-05
 1.405704e-05
 1.584352e-05
 1.709265e-05
 1.764416e-05
 1.743334e-05
 1.662019e-05
 1.525551e-05
 1.279312e-05
 9.088916e-06
 5.168454e-06
 2.117583e-06
 5.995490e-09
 -1.879131e-06
 -4.049393e-06
 -5.986990e-06
 -6.788943e-06
 -6.222575e-06
 -4.978354e-06
 -4.002532e-06
 -3.653446e-06
 -3.577721e-06
 -3.415137e-06
 -3.216931e-06
 -2.687342e-06
 -1.469572e-06
 1.841197e-07
 1.642200e-06
 2.278818e-06
 1.934681e-06
 1.219211e-06
 1.155083e-06
 2.296481e-06
 5.916318e-06
 -3.260066e-05
 0.000000e+00
 0.000000e+00
 1.120277e-05
 7.447734e-06
 7.222926e-06
 7.347652e-06
 7.530134e-06
 7.786844e-06
 8.165179e-06
 8.691171e-06
 9.298381e-06
 9.837429e-06
 1.016839e-05
 1.028636e-05
 1.041793e-05
 1.088764e-05
 1.181050e-05
 1.298129e-05
 1.407845e-05
 1.484895e-05
 1.514332e-05
 1.490002e-05
 1.412276e-05
 1.278047e-05
 1.077749e-05
 8.203465e-06
 5.472643e-06
 3.022470e-06
 9.757482e-07
 -8.190043e-07
 -2.460328e-06
 -3.764773e-06
 -4.441072e-06
 -4.426991e-06
 -3.991314e-06
 -3.514213e-06
 -3.194834e-06
 -2.984770e-06
 -2.761274e-06
 -2.440364e-06
 -1.906092e-06
 -1.089472e-06
 -1.207183e-07
 7.139162e-07
 1.151365e-06
 1.147391e-06
 9.439357e-07
 8.670056e-07
 8.428926e-07
 -1.226023e-06
 -3.431980e-05
 0.000000e+00
 0.000000e+00
 9.738851e-06
 7.069449e-06
 6.471556e-06
 6.610866e-06
 6.950887e-06
 7.350361e-06
 7.794597e-06
 8.282171e-06
 8.780531e-06
 9.229844e-06
 9.584568e-06
 9.864563e-06
 1.017145e-05
 1.062623e-05
 1.126470e-05
 1.199599e-05
 1.265827e-05
 1.309520e-05
 1.319462e-05
 1.289413e-05
 1.216727e-05
 1.100036e-05
 9.404380e-06
 7.479252e-06
 5.430146e-06
 3.468966e-06
 1.705043e-06
 1.495286e-07
 -1.185002e-06
 -2.217272e-06
 -2.849472e-06
 -3.073876e-06
 -3.007701e-06
 -2.818274e-06
 -2.616936e-06
 -2.420691e-06
 -2.191801e-06
 -1.881841e-06
 -1.448446e-06
 -8.910036e-07
 -2.882329e-07
 2.226880e-07
 5.214801e-07
 5.813091e-07
 4.831544e-07
 3.405911e-07
 2.112572e-07
 8.509786e-07
 1.741089e-05
 0.000000e+00
 0.000000e+00
 6.528100e-06
 4.794701e-06
 5.123809e-06
 5.732828e-06
 6.328762e-06
 6.869929e-06
 7.374114e-06
 7.856692e-06
 8.313779e-06
 8.728617e-06
 9.091759e-06
 9.420735e-06
 9.760703e-06
 1.015658e-05
 1.061392e-05
 1.108202e-05
 1.147173e-05
 1.168767e-05
 1.165238e-05
 1.131571e-05
 1.065365e-05
 9.665634e-06
 8.382280e-06
 6.880511e-06
 5.278607e-06
 3.698608e-06
 2.227260e-06
 9.127724e-07
 -2.073452e-07
 -1.087378e-06
 -1.690191e-06
 -2.020667e-06
 -2.135613e-06
 -2.115837e-06
 -2.024967e-06
 -1.888840e-06
 -1.703363e-06
 -1.453371e-06
 -1.130159e-06
 -7.493333e-07
 -3.611651e-07
 -3.897244e-08
 1.515138e-07
 1.797631e-07
 5.221047e-08
 -2.032564e-07
 -4.598598e-07
 9.890072e-07
 -3.525084e-05
 0.000000e+00
 0.000000e+00
 -2.150335e-06
 1.459672e-06
 3.609837e-06
 4.900514e-06
 5.768466e-06
 6.425063e-06
 6.971420e-06
 7.454140e-06
 7.890482e-06
 8.284140e-06
 8.638668e-06
 8.966291e-06
 9.286738e-06
 9.614959e-06
 9.945535e-06
 1.024576e-05
 1.046238e-05
 1.053624e-05
 1.041597e-05
 1.006621e-05
 9.470807e-06
 8.634596e-06
 7.586673e-06
 6.382606e-06
 5.098038e-06
 3.812109e-06
 2.591159e-06
 1.484274e-06
 5.293772e-07
 -2.425123e-07
 -8.131751e-07
 -1.187401e-06
 -1.394660e-06
 -1.477253e-06
 -1.473010e-06
 -1.404635e-06
 -1.280428e-06
 -1.102330e-06
 -8.759789e-07
 -6.194787e-07
 -3.667846e-07
 -1.622146e-07
 -4.919963e-08
 -6.379168e-08
 -2.451392e-07
 -6.719870e-07
 -1.558219e-06
 -4.138599e-06
 -1.862384e-05
 0.000000e+00
 0.000000e+00
 -9.243000e-06
 -2.804822e-07
 2.889644e-06
 4.455137e-06
 5.402988e-06
 6.082121e-06
 6.627663e-06
 7.095729e-06
 7.509955e-06
 7.880535e-06
 8.214094e-06
 8.518343e-06
 8.801322e-06
 9.065995e-06
 9.303844e-06
 9.492175e-06
 9.597284e-06
 9.581748e-06
 9.412293e-06
 9.065774e-06
 8.532813e-06
 7.819953e-06
 6.950911e-06
 5.965786e-06
 4.916293e-06
 3.857397e-06
 2.839208e-06
 1.903001e-06
 1.081119e-06
 3.970079e-07
 -1.371579e-07
 -5.234141e-07
 -7.773955e-07
 -9.226230e-07
 -9.825761e-07
 -9.751654e-07
 -9.120241e-07
 -8.017698e-07
 -6.548718e-07
 -4.877456e-07
 -3.240086e-07
 -1.921730e-07
 -1.221124e-07
 -1.461907e-07
 -3.143799e-07
 -7.413067e-07
 -1.726026e-06
 -4.056275e-06
 1.599538e-05
 0.000000e+00
 0.000000e+00
 -2.914569e-06
 1.728543e-06
 3.505985e-06
 4.542248e-06
 5.276869e-06
 5.861560e-06
 6.356572e-06
 6.789118e-06
 7.172609e-06
 7.514289e-06
 7.819030e-06
 8.090854e-06
 8.332181e-06
 8.541307e-06
 8.709715e-06
 8.821179e-06
 8.853586e-06
 8.782935e-06
 8.588012e-06
 8.254453e-06
 7.777631e-06
 7.164345e-06
 6.433289e-06
 5.613871e-06
 4.743003e-06
 3.860376e-06
 3.003791e-06
 2.206013e-06
 1.493237e-06
 8.841021e-07
 3.885163e-07
 6.912881e-09
 -2.687985e-07
 -4.521872e-07
 -5.583434e-07
 -6.008803e-07
 -5.910642e-07
 -5.389281e-07
 -4.553079e-07
 -3.534907e-07
 -2.494411e-07
 -1.604105e-07
 -1.030510e-07
 -9.337373e-08
 -1.517941e-07
 -3.207220e-07
 -7.385237e-07
 -3.511904e-06
 1.665299e-05
 0.000000e+00
 0.000000e+00
 9.771878e-06
 5.459426e-06
 4.737565e-06
 4.893617e-06
 5.288327e-06
 5.726020e-06
 6.145899e-06
 6.530616e-06
 6.876735e-06
 7.184908e-06
 7.456672e-06
 7.693181e-06
 7.894053e-06
 8.055965e-06
 8.171488e-06
 8.228906e-06
 8.213430e-06
 8.109573e-06
 7.904023e-06
 7.588331e-06
 7.160939e-06
 6.628356e-06
 6.005329e-06
 5.313865e-06
 4.581106e-06
 3.836422e-06
 3.108459e-06
 2.422777e-06
 1.800253e-06
 1.256015e-06
 7.987210e-07
 4.304056e-07
 1.472530e-07
 -5.867170e-08
 -1.972796e-07
 -2.787160e-07
 -3.125698e-07
 -3.080226e-07
 -2.744388e-07
 -2.217024e-07
 -1.597064e-07
 -9.673656e-08
 -3.677490e-08
 2.476569e-08
 1.108733e-07
 2.972588e-07
 8.525552e-07
 2.720900e-06
 5.299032e-05
 0.000000e+00
 0.000000e+00
 1.355079e-05
 6.826433e-06
 5.288647e-06
 5.063374e-06
 5.274786e-06
 5.614189e-06
 5.972262e-06
 6.311237e-06
 6.618913e-06
 6.891875e-06
 7.129324e-06
 7.330650e-06
 7.494170e-06
 7.616257e-06
 7.690818e-06
 7.709396e-06
 7.662026e-06
 7.538732e-06
 7.331351e-06
 7.035281e-06
 6.650843e-06
 6.184055e-06
 5.646684e-06
 5.055528e-06
 4.430994e-06
 3.795210e-06
 3.170052e-06
 2.575416e-06
 2.027891e-06
 1.539852e-06
 1.118942e-06
 7.680360e-07
 4.857599e-07
 2.675174e-07
 1.067338e-07
 -4.053180e-09
 -7.251464e-08
 -1.062652e-07
 -1.127565e-07
 -9.893477e-08
 -7.026006e-08
 -2.873152e-08
 3.051402e-08
 1.250492e-07
 2.965495e-07
 6.393919e-07
 1.410552e-06
 4.650254e-06
 -1.616523e-05
 0.000000e+00
 0.000000e+00
 5.827738e-06
 5.018773e-06
 4.754282e-06
 4.874508e-06
 5.161074e-06
 5.493727e-06
 5.821302e-06
 6.124372e-06
 6.396154e-06
 6.634360e-06
 6.837915e-06
 7.005589e-06
 7.135294e-06
 7.223657e-06
 7.265859e-06
 7.255825e-06
 7.186849e-06
 7.052582e-06
 6.848205e-06
 6.571567e-06
 6.224077e-06
 5.811196e-06
 5.342439e-06
 4.830860e-06
 4.292082e-06
 3.743028e-06
 3.200562e-06
 2.680229e-06
 2.195242e-06
 1.755748e-06
 1.368438e-06
 1.036492e-06
 7.599081e-07
 5.361128e-07
 3.607285e-07
 2.282986e-07
 1.328503e-07
 6.829888e-08
 2.883313e-08
 9.519199e-09
 7.415734e-09
 2.354637e-08
 6.618013e-08
 1.558130e-07
 3.301370e-07
 6.313481e-07
 9.514383e-07
 -1.313025e-06
 -1.673536e-05
 0.000000e+00
 0.000000e+00
 -5.284918e-07
 2.564064e-06
 3.841114e-06
 4.539599e-06
 5.012290e-06
 5.383069e-06
 5.696669e-06
 5.969423e-06
 6.207130e-06
 6.411454e-06
 6.582239e-06
 6.718278e-06
 6.817505e-06
 6.876998e-06
 6.893021e-06
 6.861249e-06
 6.777220e-06
 6.636994e-06
 6.437925e-06
 6.179395e-06
 5.863392e-06
 5.494816e-06
 5.081454e-06
 4.633609e-06
 4.163431e-06
 3.684033e-06
 3.208540e-06
 2.749180e-06
 2.316511e-06
 1.918867e-06
 1.562028e-06
 1.249155e-06
 9.809683e-07
 7.561222e-07
 5.716879e-07
 4.236511e-07
 3.073580e-07
 2.179096e-07
 1.505797e-07
 1.013878e-07
 6.801332e-08
 5.131787e-08
 5.793121e-08
 1.047486e-07
 2.268061e-07
 4.914825e-07
 1.043256e-06
 3.659114e-06
 3.568246e-05
 0.000000e+00
 0.000000e+00
 -2.650014e-06
 1.444236e-06
 3.413425e-06
 4.399280e-06
 4.954427e-06
 5.325611e-06
 5.611389e-06
 5.848931e-06
 6.051219e-06
 6.221926e-06
 6.361168e-06
 6.467635e-06
 6.539311e-06
 6.573703e-06
 6.567950e-06
 6.519015e-06
 6.424002e-06
 6.280592e-06
 6.087548e-06
 5.845192e-06
 5.555772e-06
 5.223650e-06
 4.855264e-06
 4.458856e-06
 4.044000e-06
 3.620978e-06
 3.200104e-06
 2.791059e-06
 2.402324e-06
 2.040737e-06
 1.711239e-06
 1.416783e-06
 1.158424e-06
 9.355408e-07
 7.461449e-07
 5.872189e-07
 4.550455e-07
 3.455169e-07
 2.544489e-07
 1.779415e-07
 1.128432e-07
 5.740120e-08
 1.234995e-08
 -1.652266e-08
 -9.805785e-09
 9.923500e-08
 5.552996e-07
 2.151555e-06
 -5.184609e-05
 0.000000e+00
 0.000000e+00
 -2.241159e-06
 2.237308e-06
 3.887464e-06
 4.639148e-06
 5.058343e-06
 5.344630e-06
 5.570864e-06
 5.762359e-06
 5.926384e-06
 6.063661e-06
 6.172768e-06
 6.251703e-06
 6.298340e-06
 6.310519e-06
 6.286080e-06
 6.222955e-06
 6.119362e-06
 5.974087e-06
 5.786810e-06
 5.558412e-06
 5.291206e-06
 4.989054e-06
 4.657320e-06
 4.302673e-06
 3.932739e-06
 3.555667e-06
 3.179632e-06
 2.812353e-06
 2.460665e-06
 2.130183e-06
 1.825088e-06
 1.548033e-06
 1.300176e-06
 1.081301e-06
 8.900157e-07
 7.239692e-07
 5.800742e-07
 4.547084e-07
 3.438773e-07
 2.433096e-07
 1.484015e-07
 5.381830e-08
 -4.763912e-08
 -1.675684e-07
 -3.264490e-07
 -5.570563e-07
 -8.785929e-07
 3.506388e-07
 -3.585518e-07
 0.000000e+00
 0.000000e+00
 4.223552e-06
 5.155857e-06
 5.106945e-06
 5.162603e-06
 5.277410e-06
 5.416899e-06
 5.562499e-06
 5.702339e-06
 5.828010e-06
 5.933494e-06
 6.014528e-06
 6.068066e-06
 6.091822e-06
 6.083965e-06
 6.042942e-06
 5.967456e-06
 5.856552e-06
 5.709787e-06
 5.527437e-06
 5.310700e-06
 5.061841e-06
 4.784260e-06
 4.482454e-06
 4.161863e-06
 3.828622e-06
 3.489242e-06
 3.150255e-06
 2.817850e-06
 2.497557e-06
 2.193984e-06
 1.910644e-06
 1.649856e-06
 1.412747e-06
 1.199312e-06
 1.008526e-06
 8.384795e-07
 6.865134e-07
 5.493227e-07
 4.229956e-07
 3.029154e-07
 1.833620e-07
 5.643891e-08
 -9.059886e-08
 -2.821039e-07
 -5.724539e-07
 -1.102051e-06
 -2.282733e-06
 -5.985195e-06
 -5.413057e-05
 0.000000e+00
 0.000000e+00
 1.544284e-05
 7.970264e-06
 6.209059e-06
 5.632244e-06
 5.474201e-06
 5.483999e-06
 5.560425e-06
 5.656879e-06
 5.750115e-06
 5.827975e-06
 5.883909e-06
 5.914279e-06
 5.916962e-06
 5.890616e-06
 5.834321e-06
 5.747458e-06
 5.629723e-06
 5.481226e-06
 5.302633e-06
 5.095303e-06
 4.861382e-06
 4.603852e-06
 4.326492e-06
 4.033766e-06
 3.730645e-06
 3.422368e-06
 3.114183e-06
 2.811079e-06
 2.517542e-06
 2.237354e-06
 1.973446e-06
 1.727810e-06
 1.501474e-06
 1.294527e-06
 1.106172e-06
 9.348035e-07
 7.780797e-07
 6.329631e-07
 4.956999e-07
 3.616704e-07
 2.249794e-07
 7.750016e-08
 -9.328968e-08
 -3.093524e-07
 -6.148052e-07
 -1.113465e-06
 -2.118344e-06
 -6.498044e-06
 5.056109e-05
 0.000000e+00
 0.000000e+00
 1.115992e-05
 7.785928e-06
 6.373465e-06
 5.745119e-06
 5.523132e-06
 5.492260e-06
 5.541792e-06
 5.616325e-06
 5.688461e-06
 5.744836e-06
 5.779089e-06
 5.788300e-06
 5.771197e-06
 5.727261e-06
 5.656319e-06
 5.558403e-06
 5.433748e-06
 5.282876e-06
 5.106701e-06
 4.906636e-06
 4.684668e-06
 4.443391e-06
 4.185981e-06
 3.916112e-06
 3.637826e-06
 3.355358e-06
 3.072945e-06
 2.794621e-06
 2.524034e-06
 2.264286e-06
 2.017813e-06
 1.786304e-06
 1.570666e-06
 1.371016e-06
 1.186709e-06
 1.016369e-06
 8.579228e-07
 7.086122e-07
 5.649714e-07
 4.227449e-07
 2.767211e-07
 1.204733e-07
 -5.388885e-08
 -2.552421e-07
 -4.883429e-07
 -7.222511e-07
 -6.959600e-07
 1.970086e-06
 3.443784e-05
 0.000000e+00
 0.000000e+00
 5.254413e-06
 6.295453e-06
 5.782504e-06
 5.480907e-06
 5.397618e-06
 5.428700e-06
 5.502472e-06
 5.580330e-06
 5.643645e-06
 5.684350e-06
 5.699561e-06
 5.688748e-06
 5.652315e-06
 5.590941e-06
 5.505324e-06
 5.396132e-06
 5.264056e-06
 5.109913e-06
 4.934756e-06
 4.739974e-06
 4.527361e-06
 4.299149e-06
 4.057990e-06
 3.806907e-06
 3.549187e-06
 3.288261e-06
 3.027553e-06
 2.770335e-06
 2.519574e-06
 2.277818e-06
 2.047085e-06
 1.828798e-06
 1.623741e-06
 1.432040e-06
 1.253162e-06
 1.085928e-06
 9.285141e-07
 7.784623e-07
 6.326723e-07
 4.874156e-07
 3.384322e-07
 1.813174e-07
 1.274530e-08
 -1.659894e-07
 -3.391991e-07
 -4.520602e-07
 -3.733628e-07
 -8.801408e-07
 -1.745577e-05
 0.000000e+00
 0.000000e+00
 7.280951e-06
 5.023689e-06
 4.875254e-06
 4.995025e-06
 5.165235e-06
 5.328050e-06
 5.462247e-06
 5.560522e-06
 5.622237e-06
 5.649710e-06
 5.646193e-06
 5.614853e-06
 5.558373e-06
 5.478856e-06
 5.377907e-06
 5.256765e-06
 5.116470e-06
 4.958021e-06
 4.782506e-06
 4.591218e-06
 4.385727e-06
 4.167913e-06
 3.939971e-06
 3.704362e-06
 3.463754e-06
 3.220918e-06
 2.978623e-06
 2.739518e-06
 2.506023e-06
 2.280226e-06
 2.063802e-06
 1.857951e-06
 1.663350e-06
 1.480131e-06
 1.307867e-06
 1.145559e-06
 9.916366e-07
 8.439439e-07
 6.997449e-07
 5.557690e-07
 4.084001e-07
 2.542405e-07
 9.155108e-08
 -7.652682e-08
 -2.362164e-07
 -3.595266e-07
 -4.433253e-07
 -9.696182e-07
 3.474665e-05
 0.000000e+00
 0.000000e+00
 2.789205e-06
 2.887677e-06
 3.790315e-06
 4.474911e-06
 4.944830e-06
 5.258093e-06
 5.458980e-06
 5.577725e-06
 5.635196e-06
 5.646034e-06
 5.620556e-06
 5.565999e-06
 5.487380e-06
 5.388144e-06
 5.270649e-06
 5.136544e-06
 4.987057e-06
 4.823228e-06
 4.646075e-06
 4.456719e-06
 4.256466e-06
 4.046854e-06
 3.829651e-06
 3.606836e-06
 3.380549e-06
 3.153015e-06
 2.926463e-06
 2.703036e-06
 2.484703e-06
 2.273180e-06
 2.069861e-06
 1.875763e-06
 1.691483e-06
 1.517175e-06
 1.352518e-06
 1.196709e-06
 1.048431e-06
 9.058393e-07
 7.665275e-07
 6.275294e-07
 4.853873e-07
 3.364238e-07
 1.774747e-07
 7.534981e-09
 -1.690781e-07
 -3.364918e-07
 -4.365181e-07
 -3.083780e-07
 -2.525813e-07
 0.000000e+00
 0.000000e+00
 -5.168762e-06
 7.609497e-07
 2.976130e-06
 4.170754e-06
 4.877909e-06
 5.298171e-06
 5.536349e-06
 5.655197e-06
 5.694086e-06
 5.678167e-06
 5.623637e-06
 5.540948e-06
 5.436826e-06
 5.315575e-06
 5.179935e-06
 5.031672e-06
 4.871984e-06
 4.701779e-06
 4.521879e-06
 4.333154e-06
 4.136607e-06
 3.933421e-06
 3.724968e-06
 3.512798e-06
 3.298592e-06
 3.084116e-06
 2.871149e-06
 2.661417e-06
 2.456519e-06
 2.257868e-06
 2.066630e-06
 1.883680e-06
 1.709568e-06
 1.544484e-06
 1.388238e-06
 1.240237e-06
 1.099448e-06
 9.643591e-07
 8.329095e-07
 7.023855e-07
 5.692570e-07
 4.289104e-07
 2.752166e-07
 9.996458e-08
 -1.071893e-07
 -3.560226e-07
 -6.585224e-07
 -1.724992e-06
 1.705581e-05
 0.000000e+00
 0.000000e+00
 -3.257760e-06
 9.008426e-07
 3.013680e-06
 4.316375e-06
 5.084950e-06
 5.513977e-06
 5.729359e-06
 5.810355e-06
 5.806346e-06
 5.747986e-06
 5.654274e-06
 5.536938e-06
 5.403150e-06
 5.257236e-06
 5.101750e-06
 4.938182e-06
 4.767415e-06
 4.590034e-06
 4.406531e-06
 4.217442e-06
 4.023419e-06
 3.825284e-06
 3.624028e-06
 3.420808e-06
 3.216908e-06
 3.013698e-06
 2.812580e-06
 2.614931e-06
 2.422047e-06
 2.235093e-06
 2.055054e-06
 1.882702e-06
 1.718561e-06
 1.562887e-06
 1.415642e-06
 1.276473e-06
 1.144673e-06
 1.019133e-06
 8.982328e-07
 7.796700e-07
 6.600980e-07
 5.343916e-07
 3.940915e-07
 2.242176e-07
 -2.316366e-09
 -3.292375e-07
 -7.867748e-07
 -1.479111e-06
 1.687017e-05
 0.000000e+00
 0.000000e+00
 2.244392e-06
 2.177963e-06
 3.852423e-06
 4.980855e-06
 5.620086e-06
 5.935834e-06
 6.051934e-06
 6.047512e-06
 5.971084e-06
 5.851989e-06
 5.707805e-06
 5.548920e-06
 5.381316e-06
 5.208296e-06
 5.031552e-06
 4.851844e-06
 4.669446e-06
 4.484418e-06
 4.296793e-06
 4.106690e-06
 3.914375e-06
 3.720294e-06
 3.525074e-06
 3.329512e-06
 3.134539e-06
 2.941184e-06
 2.750528e-06
 2.563658e-06
 2.381617e-06
 2.205367e-06
 2.035751e-06
 1.873467e-06
 1.719039e-06
 1.572808e-06
 1.434912e-06
 1.305271e-06
 1.183559e-06
 1.069155e-06
 9.610546e-07
 8.576885e-07
 7.565611e-07
 6.534559e-07
 5.405746e-07
 4.018965e-07
 2.012061e-07
 -1.481533e-07
 -8.471774e-07
 -2.750135e-06
 1.676793e-05
 0.000000e+00
 0.000000e+00
 -1.538466e-06
 3.626718e-06
 5.344311e-06
 6.137290e-06
 6.469452e-06
 6.549721e-06
 6.490052e-06
 6.353595e-06
 6.176608e-06
 5.979930e-06
 5.775333e-06
 5.569189e-06
 5.364641e-06
 5.162934e-06
 4.964238e-06
 4.768166e-06
 4.574104e-06
 4.381413e-06
 4.189559e-06
 3.998180e-06
 3.807128e-06
 3.616470e-06
 3.426486e-06
 3.237643e-06
 3.050560e-06
 2.865971e-06
 2.684685e-06
 2.507541e-06
 2.335375e-06
 2.168981e-06
 2.009090e-06
 1.856343e-06
 1.711287e-06
 1.574358e-06
 1.445888e-06
 1.326093e-06
 1.215074e-06
 1.112785e-06
 1.018998e-06
 9.332069e-07
 8.544707e-07
 7.811007e-07
 7.099459e-07
 6.342235e-07
 5.353224e-07
 3.479205e-07
 -2.001433e-07
 -4.108960e-06
 3.444997e-05
 0.000000e+00
 0.000000e+00
 4.572392e-06
 6.945368e-06
 7.648451e-06
 7.722499e-06
 7.556370e-06
 7.295986e-06
 7.000734e-06
 6.697768e-06
 6.400383e-06
 6.114927e-06
 5.843893e-06
 5.587559e-06
 5.344954e-06
 5.114473e-06
 4.894264e-06
 4.682476e-06
 4.477409e-06
 4.277603e-06
 4.081885e-06
 3.889383e-06
 3.699521e-06
 3.512003e-06
 3.326784e-06
 3.144034e-06
 2.964100e-06
 2.787462e-06
 2.614697e-06
 2.446440e-06
 2.283349e-06
 2.126079e-06
 1.975266e-06
 1.831513e-06
 1.695388e-06
 1.567431e-06
 1.448167e-06
 1.338118e-06
 1.237827e-06
 1.147870e-06
 1.068876e-06
 1.001555e-06
 9.467996e-07
 9.060422e-07
 8.824203e-07
 8.842460e-07
 9.346261e-07
 1.096553e-06
 1.535440e-06
 1.756640e-06
 7.067261e-05
 0.000000e+00
 0.000000e+00
 1.362560e-05
 1.169111e-05
 1.048791e-05
 9.513559e-06
 8.725634e-06
 8.072553e-06
 7.517074e-06
 7.035289e-06
 6.611620e-06
 6.235148e-06
 5.897557e-06
 5.592100e-06
 5.313106e-06
 5.055742e-06
 4.815897e-06
 4.590106e-06
 4.375500e-06
 4.169756e-06
 3.971046e-06
 3.777991e-06
 3.589611e-06
 3.405273e-06
 3.224642e-06
 3.047632e-06
 2.874358e-06
 2.705088e-06
 2.540206e-06
 2.380173e-06