<VTKFile type="UnstructuredGrid"  version="0.1"   >
<UnstructuredGrid>  
<Piece  NumberOfPoints="     2601"  NumberOfCells="     5000">  
<Points>  
<DataArray  type="Float64"  NumberOfComponents="3"  format="ascii">  
 0.000000 0.000000 0.000000 
 0.020000 0.000000 0.000000 
 0.040000 0.000000 0.000000 
 0.060000 0.000000 0.000000 
 0.080000 0.000000 0.000000 
 0.100000 0.000000 0.000000 
 0.120000 0.000000 0.000000 
 0.140000 0.000000 0.000000 
 0.160000 0.000000 0.000000 
 0.180000 0.000000 0.000000 
 0.200000 0.000000 0.000000 
 0.220000 0.000000 0.000000 
 0.240000 0.000000 0.000000 
 0.260000 0.000000 0.000000 
 0.280000 0.000000 0.000000 
 0.300000 0.000000 0.000000 
 0.320000 0.000000 0.000000 
 0.340000 0.000000 0.000000 
 0.360000 0.000000 0.000000 
 0.380000 0.000000 0.000000 
 0.400000 0.000000 0.000000 
 0.420000 0.000000 0.000000 
 0.440000 0.000000 0.000000 
 0.460000 0.000000 0.000000 
 0.480000 0.000000 0.000000 
 0.500000 0.000000 0.000000 
 0.520000 0.000000 0.000000 
 0.540000 0.000000 0.000000 
 0.560000 0.000000 0.000000 
 0.580000 0.000000 0.000000 
 0.600000 0.000000 0.000000 
 0.620000 0.000000 0.000000 
 0.640000 0.000000 0.000000 
 0.660000 0.000000 0.000000 
 0.680000 0.000000 0.000000 
 0.700000 0.000000 0.000000 
 0.720000 0.000000 0.000000 
 0.740000 0.000000 0.000000 
 0.760000 0.000000 0.000000 
 0.780000 0.000000 0.000000 
 0.800000 0.000000 0.000000 
 0.820000 0.000000 0.000000 
 0.840000 0.000000 0.000000 
 0.860000 0.000000 0.000000 
 0.880000 0.000000 0.000000 
 0.900000 0.000000 0.000000 
 0.920000 0.000000 0.000000 
 0.940000 0.000000 0.000000 
 0.960000 0.000000 0.000000 
 0.980000 0.000000 0.000000 
 1.000000 0.000000 0.000000 
 0.000000 0.020000 0.000000 
 0.020000 0.020000 0.000000 
 0.040000 0.020000 0.000000 
 0.060000 0.020000 0.000000 
 0.080000 0.020000 0.000000 
 0.100000 0.020000 0.000000 
 0.120000 0.020000 0.000000 
 0.140000 0.020000 0.000000 
 0.160000 0.020000 0.000000 
 0.180000 0.020000 0.000000 
 0.200000 0.020000 0.000000 
 0.220000 0.020000 0.000000 
 0.240000 0.020000 0.000000 
 0.260000 0.020000 0.000000 
 0.280000 0.020000 0.000000 
 0.300000 0.020000 0.000000 
 0.320000 0.020000 0.000000 
 0.340000 0.020000 0.000000 
 0.360000 0.020000 0.000000 
 0.380000 0.020000 0.000000 
 0.400000 0.020000 0.000000 
 0.420000 0.020000 0.000000 
 0.440000 0.020000 0.000000 
 0.460000 0.020000 0.000000 
 0.480000 0.020000 0.000000 
 0.500000 0.020000 0.000000 
 0.520000 0.020000 0.000000 
 0.540000 0.020000 0.000000 
 0.560000 0.020000 0.000000 
 0.580000 0.020000 0.000000 
 0.600000 0.020000 0.000000 
 0.620000 0.020000 0.000000 
 0.640000 0.020000 0.000000 
 0.660000 0.020000 0.000000 
 0.680000 0.020000 0.000000 
 0.700000 0.020000 0.000000 
 0.720000 0.020000 0.000000 
 0.740000 0.020000 0.000000 
 0.760000 0.020000 0.000000 
 0.780000 0.020000 0.000000 
 0.800000 0.020000 0.000000 
 0.820000 0.020000 0.000000 
 0.840000 0.020000 0.000000 
 0.860000 0.020000 0.000000 
 0.880000 0.020000 0.000000 
 0.900000 0.020000 0.000000 
 0.920000 0.020000 0.000000 
 0.940000 0.020000 0.000000 
 0.960000 0.020000 0.000000 
 0.980000 0.020000 0.000000 
 1.000000 0.020000 0.000000 
 0.000000 0.040000 0.000000 
 0.020000 0.040000 0.000000 
 0.040000 0.040000 0.000000 
 0.060000 0.040000 0.000000 
 0.080000 0.040000 0.000000 
 0.100000 0.040000 0.000000 
 0.120000 0.040000 0.000000 
 0.140000 0.040000 0.000000 
 0.160000 0.040000 0.000000 
 0.180000 0.040000 0.000000 
 0.200000 0.040000 0.000000 
 0.220000 0.040000 0.000000 
 0.240000 0.040000 0.000000 
 0.260000 0.040000 0.000000 
 0.280000 0.040000 0.000000 
 0.300000 0.040000 0.000000 
 0.320000 0.040000 0.000000 
 0.340000 0.040000 0.000000 
 0.360000 0.040000 0.000000 
 0.380000 0.040000 0.000000 
 0.400000 0.040000 0.000000 
 0.420000 0.040000 0.000000 
 0.440000 0.040000 0.000000 
 0.460000 0.040000 0.000000 
 0.480000 0.040000 0.000000 
 0.500000 0.040000 0.000000 
 0.520000 0.040000 0.000000 
 0.540000 0.040000 0.000000 
 0.560000 0.040000 0.000000 
 0.580000 0.040000 0.000000 
 0.600000 0.040000 0.000000 
 0.620000 0.040000 0.000000 
 0.640000 0.040000 0.000000 
 0.660000 0.040000 0.000000 
 0.680000 0.040000 0.000000 
 0.700000 0.040000 0.000000 
 0.720000 0.040000 0.000000 
 0.740000 0.040000 0.000000 
 0.760000 0.040000 0.000000 
 0.780000 0.040000 0.000000 
 0.800000 0.040000 0.000000 
 0.820000 0.040000 0.000000 
 0.840000 0.040000 0.000000 
 0.860000 0.040000 0.000000 
 0.880000 0.040000 0.000000 
 0.900000 0.040000 0.000000 
 0.920000 0.040000 0.000000 
 0.940000 0.040000 0.000000 
 0.960000 0.040000 0.000000 
 0.980000 0.040000 0.000000 
 1.000000 0.040000 0.000000 
 0.000000 0.060000 0.000000 
 0.020000 0.060000 0.000000 
 0.040000 0.060000 0.000000 
 0.060000 0.060000 0.000000 
 0.080000 0.060000 0.000000 
 0.100000 0.060000 0.000000 
 0.120000 0.060000 0.000000 
 0.140000 0.060000 0.000000 
 0.160000 0.060000 0.000000 
 0.180000 0.060000 0.000000 
 0.200000 0.060000 0.000000 
 0.220000 0.060000 0.000000 
 0.240000 0.060000 0.000000 
 0.260000 0.060000 0.000000 
 0.280000 0.060000 0.000000 
 0.300000 0.060000 0.000000 
 0.320000 0.060000 0.000000 
 0.340000 0.060000 0.000000 
 0.360000 0.060000 0.000000 
 0.380000 0.060000 0.000000 
 0.400000 0.060000 0.000000 
 0.420000 0.060000 0.000000 
 0.440000 0.060000 0.000000 
 0.460000 0.060000 0.000000 
 0.480000 0.060000 0.000000 
 0.500000 0.060000 0.000000 
 0.520000 0.060000 0.000000 
 0.540000 0.060000 0.000000 
 0.560000 0.060000 0.000000 
 0.580000 0.060000 0.000000 
 0.600000 0.060000 0.000000 
 0.620000 0.060000 0.000000 
 0.640000 0.060000 0.000000 
 0.660000 0.060000 0.000000 
 0.680000 0.060000 0.000000 
 0.700000 0.060000 0.000000 
 0.720000 0.060000 0.000000 
 0.740000 0.060000 0.000000 
 0.760000 0.060000 0.000000 
 0.780000 0.060000 0.000000 
 0.800000 0.060000 0.000000 
 0.820000 0.060000 0.000000 
 0.840000 0.060000 0.000000 
 0.860000 0.060000 0.000000 
 0.880000 0.060000 0.000000 
 0.900000 0.060000 0.000000 
 0.920000 0.060000 0.000000 
 0.940000 0.060000 0.000000 
 0.960000 0.060000 0.000000 
 0.980000 0.060000 0.000000 
 1.000000 0.060000 0.000000 
 0.000000 0.080000 0.000000 
 0.020000 0.080000 0.000000 
 0.040000 0.080000 0.000000 
 0.060000 0.080000 0.000000 
 0.080000 0.080000 0.000000 
 0.100000 0.080000 0.000000 
 0.120000 0.080000 0.000000 
 0.140000 0.080000 0.000000 
 0.160000 0.080000 0.000000 
 0.180000 0.080000 0.000000 
 0.200000 0.080000 0.000000 
 0.220000 0.080000 0.000000 
 0.240000 0.080000 0.000000 
 0.260000 0.080000 0.000000 
 0.280000 0.080000 0.000000 
 0.300000 0.080000 0.000000 
 0.320000 0.080000 0.000000 
 0.340000 0.080000 0.000000 
 0.360000 0.080000 0.000000 
 0.380000 0.080000 0.000000 
 0.400000 0.080000 0.000000 
 0.420000 0.080000 0.000000 
 0.440000 0.080000 0.000000 
 0.460000 0.080000 0.000000 
 0.480000 0.080000 0.000000 
 0.500000 0.080000 0.000000 
 0.520000 0.080000 0.000000 
 0.540000 0.080000 0.000000 
 0.560000 0.080000 0.000000 
 0.580000 0.080000 0.000000 
 0.600000 0.080000 0.000000 
 0.620000 0.080000 0.000000 
 0.640000 0.080000 0.000000 
 0.660000 0.080000 0.000000 
 0.680000 0.080000 0.000000 
 0.700000 0.080000 0.000000 
 0.720000 0.080000 0.000000 
 0.740000 0.080000 0.000000 
 0.760000 0.080000 0.000000 
 0.780000 0.080000 0.000000 
 0.800000 0.080000 0.000000 
 0.820000 0.080000 0.000000 
 0.840000 0.080000 0.000000 
 0.860000 0.080000 0.000000 
 0.880000 0.080000 0.000000 
 0.900000 0.080000 0.000000 
 0.920000 0.080000 0.000000 
 0.940000 0.080000 0.000000 
 0.960000 0.080000 0.000000 
 0.980000 0.080000 0.000000 
 1.000000 0.080000 0.000000 
 0.000000 0.100000 0.000000 
 0.020000 0.100000 0.000000 
 0.040000 0.100000 0.000000 
 0.060000 0.100000 0.000000 
 0.080000 0.100000 0.000000 
 0.100000 0.100000 0.000000 
 0.120000 0.100000 0.000000 
 0.140000 0.100000 0.000000 
 0.160000 0.100000 0.000000 
 0.180000 0.100000 0.000000 
 0.200000 0.100000 0.000000 
 0.220000 0.100000 0.000000 
 0.240000 0.100000 0.000000 
 0.260000 0.100000 0.000000 
 0.280000 0.100000 0.000000 
 0.300000 0.100000 0.000000 
 0.320000 0.100000 0.000000 
 0.340000 0.100000 0.000000 
 0.360000 0.100000 0.000000 
 0.380000 0.100000 0.000000 
 0.400000 0.100000 0.000000 
 0.420000 0.100000 0.000000 
 0.440000 0.100000 0.000000 
 0.460000 0.100000 0.000000 
 0.480000 0.100000 0.000000 
 0.500000 0.100000 0.000000 
 0.520000 0.100000 0.000000 
 0.540000 0.100000 0.000000 
 0.560000 0.100000 0.000000 
 0.580000 0.100000 0.000000 
 0.600000 0.100000 0.000000 
 0.620000 0.100000 0.000000 
 0.640000 0.100000 0.000000 
 0.660000 0.100000 0.000000 
 0.680000 0.100000 0.000000 
 0.700000 0.100000 0.000000 
 0.720000 0.100000 0.000000 
 0.740000 0.100000 0.000000 
 0.760000 0.100000 0.000000 
 0.780000 0.100000 0.000000 
 0.800000 0.100000 0.000000 
 0.820000 0.100000 0.000000 
 0.840000 0.100000 0.000000 
 0.860000 0.100000 0.000000 
 0.880000 0.100000 0.000000 
 0.900000 0.100000 0.000000 
 0.920000 0.100000 0.000000 
 0.940000 0.100000 0.000000 
 0.960000 0.100000 0.000000 
 0.980000 0.100000 0.000000 
 1.000000 0.100000 0.000000 
 0.000000 0.120000 0.000000 
 0.020000 0.120000 0.000000 
 0.040000 0.120000 0.000000 
 0.060000 0.120000 0.000000 
 0.080000 0.120000 0.000000 
 0.100000 0.120000 0.000000 
 0.120000 0.120000 0.000000 
 0.140000 0.120000 0.000000 
 0.160000 0.120000 0.000000 
 0.180000 0.120000 0.000000 
 0.200000 0.120000 0.000000 
 0.220000 0.120000 0.000000 
 0.240000 0.120000 0.000000 
 0.260000 0.120000 0.000000 
 0.280000 0.120000 0.000000 
 0.300000 0.120000 0.000000 
 0.320000 0.120000 0.000000 
 0.340000 0.120000 0.000000 
 0.360000 0.120000 0.000000 
 0.380000 0.120000 0.000000 
 0.400000 0.120000 0.000000 
 0.420000 0.120000 0.000000 
 0.440000 0.120000 0.000000 
 0.460000 0.120000 0.000000 
 0.480000 0.120000 0.000000 
 0.500000 0.120000 0.000000 
 0.520000 0.120000 0.000000 
 0.540000 0.120000 0.000000 
 0.560000 0.120000 0.000000 
 0.580000 0.120000 0.000000 
 0.600000 0.120000 0.000000 
[...]
<PointData  Scalars="U"> 
<DataArray  type="Float64"  Name="U"  format="ascii"> 
 0.000000e+00
 0.000000e+00
 0.000000e+00
 0.000000e+00
 0.000000e+00
 0.000000e+00
 0.000000e+00
 0.000000e+00
 0.000000e+00
 0.000000e+00
 0.000000e+00
 0.000000e+00
 0.000000e+00
 0.000000e+00
 0.000000e+00
 0.000000e+00
 0.000000e+00
 0.000000e+00
 0.000000e+00
 0.000000e+00
 0.000000e+00
 0.000000e+00
 0.000000e+00
 0.000000e+00
 0.000000e+00
 0.000000e+00
 0.000000e+00
 0.000000e+00
 0.000000e+00
 0.000000e+00
 0.000000e+00
 0.000000e+00
 0.000000e+00
 0.000000e+00
 0.000000e+00
 0.000000e+00
 0.000000e+00
 0.000000e+00
 0.000000e+00
 0.000000e+00
 0.000000e+00
 0.000000e+00
 0.000000e+00
 0.000000e+00
 0.000000e+00
 0.000000e+00
 0.000000e+00
 0.000000e+00
 0.000000e+00
 0.000000e+00
 0.000000e+00
 0.000000e+00
 1.152321e-05
 2.037775e-05
 1.370122e-05
 7.476985e-06
 9.849054e-06
 6.781795e-06
 2.824171e-06
 9.927374e-06
 1.616484e-05
 1.394798e-05
 1.733307e-05
 1.504506e-05
 1.173360e-05
 8.365805e-06
 1.966586e-05
 2.838494e-05
 3.407911e-05
 3.261608e-05
 3.240107e-05
 3.219163e-05
 2.039761e-05
 1.832667e-05
 1.813282e-05
 -2.415159e-07
 -2.036955e-05
 -1.934653e-05
 -1.028142e-05
 -3.866005e-06
 -5.739232e-06
 -1.588074e-05
 -2.122706e-05
 -1.689180e-05
 -3.764234e-06
 -2.286318e-07
 1.086183e-07
 2.813621e-06
 1.745552e-05
 1.293238e-05
 7.378618e-06
 1.369216e-05
 1.276063e-05
 1.364513e-05
 1.616550e-05
 1.268228e-05
 2.735254e-06
 -2.642754e-06
 -1.681855e-06
 1.016883e-06
 8.263958e-05
 0.000000e+00
 0.000000e+00
 4.509934e-06
 1.174676e-05
 1.182708e-05
 1.021706e-05
 9.309972e-06
 8.322351e-06
 8.176950e-06
 1.028325e-05
 1.244817e-05
 1.355274e-05
 1.414212e-05
 1.390130e-05
 1.322050e-05
 1.424525e-05
 1.818343e-05
 2.266860e-05
 2.552767e-05
 2.613216e-05
 2.551131e-05
 2.311324e-05
 1.884023e-05
 1.490477e-05
 9.785760e-06
 1.267948e-06
 -6.574287e-06
 -9.009600e-06
 -7.547355e-06
 -6.079246e-06
 -7.206482e-06
 -1.005916e-05
 -1.147314e-05
 -9.165870e-06
 -4.734304e-06
 -1.199857e-06
 1.250229e-06
 4.698016e-06
 8.473559e-06
 9.200876e-06
 9.034055e-06
 9.903750e-06
 1.047050e-05
 1.074438e-05
 1.041679e-05
 8.088794e-06
 4.437348e-06
 2.042119e-06
 2.825511e-06
 9.522214e-06
 1.425745e-06
 0.000000e+00
 0.000000e+00
 8.895960e-06
 1.199056e-05
 1.182678e-05
 1.089569e-05
 1.009183e-05
 9.623816e-06
 9.778509e-06
 1.070623e-05
 1.186262e-05
 1.276133e-05
 1.332917e-05
 1.362298e-05
 1.400761e-05
 1.515844e-05
 1.728518e-05
 1.963328e-05
 2.125780e-05
 2.170186e-05
 2.097739e-05
 1.905448e-05
 1.609817e-05
 1.251009e-05
 8.115740e-06
 2.934846e-06
 -1.639259e-06
 -4.164026e-06
 -4.872985e-06
 -5.097539e-06
 -5.821755e-06
 -6.821098e-06
 -7.036053e-06
 -5.749981e-06
 -3.393130e-06
 -8.899648e-07
 1.462285e-06
 3.866639e-06
 5.984368e-06
 7.170063e-06
 7.758763e-06
 8.251792e-06
 8.549632e-06
 8.487256e-06
 7.833231e-06
 6.360117e-06
 4.455745e-06
 3.059664e-06
 2.947484e-06
 6.256572e-06
 -5.039310e-05
 0.000000e+00
 0.000000e+00
 2.119222e-05
 1.456827e-05
 1.246421e-05
 1.129331e-05
 1.059668e-05
 1.029919e-05
 1.042521e-05
 1.093656e-05
 1.163050e-05
 1.229499e-05
 1.284765e-05
 1.333804e-05
 1.394487e-05
 1.488033e-05
 1.614660e-05
 1.742244e-05
 1.827177e-05
 1.839452e-05
 1.767904e-05
 1.612117e-05
 1.381913e-05
 1.092838e-05
 7.568518e-06
 4.016822e-06
 8.719248e-07
 -1.334187e-06
 -2.606681e-06
 -3.374266e-06
 -3.997247e-06
 -4.432973e-06
 -4.345307e-06
 -3.504936e-06
 -2.046913e-06
 -3.072838e-07
 1.483635e-06
 3.212677e-06
 4.695977e-06
 5.750842e-06
 6.418281e-06
 6.823030e-06
 6.972310e-06
 6.794054e-06
 6.200320e-06
 5.179466e-06
 3.918940e-06
 2.700248e-06
 1.429104e-06
 -2.098303e-06
 -5.212878e-05
 0.000000e+00
 0.000000e+00
 2.203194e-05
 1.486903e-05
 1.238006e-05
 1.125524e-05
 1.072023e-05
 1.054060e-05
 1.064795e-05
 1.098481e-05
 1.145509e-05
 1.196058e-05
 1.245268e-05
 1.294867e-05
 1.351458e-05
 1.420520e-05
 1.497882e-05
 1.566794e-05
 1.604870e-05
 1.593848e-05
 1.524184e-05
 1.394637e-05
 1.210998e-05
 9.840930e-06
 7.289102e-06
 4.684297e-06
 2.332518e-06
 4.798008e-07
 -8.280801e-07
 -1.713788e-06
 -2.301480e-06
 -2.590611e-06
 -2.483120e-06
 -1.916117e-06
 -9.531434e-07
 2.517810e-07
 1.544157e-06
 2.796906e-06
 3.890090e-06
 4.734032e-06
 5.310200e-06
 5.638381e-06
 5.718958e-06
 5.526069e-06
 5.035430e-06
 4.264244e-06
 3.290436e-06
 2.191186e-06
 9.157090e-07
 4.744533e-08
 1.714649e-05
 0.000000e+00
 0.000000e+00
 1.493192e-05
 1.209793e-05
 1.114617e-05
 1.070305e-05
 1.051115e-05
 1.049444e-05
 1.063180e-05
 1.089904e-05
 1.125406e-05
 1.165131e-05
 1.206323e-05
 1.248867e-05
 1.294174e-05
 1.342259e-05
 1.388539e-05
 1.423061e-05
 1.433277e-05
 1.408254e-05
 1.341553e-05
 1.232086e-05
 1.083820e-05
 9.050590e-06
 7.080524e-06
 5.089170e-06
 3.254515e-06
 1.716405e-06
 5.296306e-07
 -3.254042e-07
 -8.845400e-07
 -1.152209e-06
 -1.106008e-06
 -7.401191e-07
 -9.884240e-08
 7.298370e-07
 1.643473e-06
 2.544729e-06
 3.348431e-06
 3.992164e-06
 4.444765e-06
 4.696137e-06
 4.738965e-06
 4.563046e-06
 4.163831e-06
 3.554174e-06
 2.763756e-06
 1.822336e-06
 7.970084e-07
 5.309214e-07
 -3.512770e-05
 0.000000e+00
 0.000000e+00
 5.369568e-06
 8.271536e-06
 9.469144e-06
 9.926805e-06
 1.013420e-05
 1.029258e-05
 1.048190e-05
 1.072476e-05
 1.101425e-05
 1.133235e-05
 1.166335e-05
 1.199888e-05
 1.233271e-05
 1.264791e-05
 1.290478e-05
 1.303953e-05
 1.297737e-05
 1.265260e-05
 1.202545e-05
 1.109047e-05
 9.877697e-06
 8.449775e-06
 6.897303e-06
 5.330825e-06
 3.863830e-06
 2.587691e-06
 1.553287e-06
 7.740743e-07
 2.466793e-07
 -3.082276e-08
 -5.832495e-08
 1.524912e-07
 5.661103e-07
 1.124258e-06
 1.756938e-06
 2.393869e-06
 2.972669e-06
 3.445215e-06
 3.780542e-06
 3.961509e-06
 3.978548e-06
 3.826582e-06
 3.506205e-06
 3.024296e-06
 2.386906e-06
 1.579990e-06
 5.259042e-07
 -1.391269e-06
 -2.716186e-07
 0.000000e+00
 0.000000e+00
 -4.949691e-07
 6.126151e-06
 8.429749e-06
 9.358707e-06
 9.788628e-06
 1.005107e-05
 1.027367e-05
 1.050209e-05
 1.074647e-05
 1.100202e-05
 1.125952e-05
 1.150903e-05
 1.173818e-05
 1.192710e-05
 1.204421e-05
 1.204702e-05
 1.188916e-05
 1.153095e-05
 1.094922e-05
 1.014333e-05
 9.137063e-06
 7.977118e-06
 6.728888e-06
 5.469131e-06
 4.274835e-06
 3.210427e-06
 2.319040e-06
 1.622573e-06
 1.128815e-06
 8.385190e-07
 7.466179e-07
 8.381949e-07
 1.084612e-06
 1.444220e-06
 1.867494e-06
 2.303602e-06
 2.706235e-06
 3.037885e-06
 3.271821e-06
 3.391412e-06
 3.388083e-06
 3.259806e-06
 3.010342e-06
 2.646873e-06
 2.171364e-06
 1.557101e-06
 6.986918e-07
 -1.299608e-07
 -1.476985e-07
 0.000000e+00
 0.000000e+00
 3.216504e-06
 7.146856e-06
 8.555111e-06
 9.213334e-06
 9.581613e-06
 9.837489e-06
 1.005427e-05
 1.026123e-05
 1.046693e-05
 1.066980e-05
 1.086336e-05
 1.103826e-05
 1.118177e-05
 1.127607e-05
 1.129720e-05
 1.121634e-05
 1.100416e-05
 1.063671e-05
 1.010131e-05
 9.400452e-06
 8.553311e-06
 7.594757e-06
 6.572110e-06
 5.539764e-06
 4.552125e-06
 3.656377e-06
 2.887531e-06
 2.267387e-06
 1.806693e-06
 1.507812e-06
 1.365642e-06
 1.366754e-06
 1.488574e-06
 1.700330e-06
 1.966010e-06
 2.248339e-06
 2.512666e-06
 2.729996e-06
 2.878761e-06
 2.945291e-06
 2.923568e-06
 2.814947e-06
 2.627978e-06
 2.377569e-06
 2.082093e-06
 1.753528e-06
 1.332816e-06
 -1.111854e-06
 2.888678e-07
 0.000000e+00
 0.000000e+00
 1.293045e-05
 9.874576e-06
 9.315846e-06
 9.319651e-06
 9.472133e-06
 9.656492e-06
 9.841545e-06
 1.002005e-05
 1.018951e-05
 1.034648e-05
 1.048535e-05
 1.059801e-05
 1.067346e-05
 1.069734e-05
 1.065201e-05
 1.051791e-05
 1.027634e-05
 9.913032e-06
 9.421707e-06
 8.806535e-06
 8.083107e-06
 7.277720e-06
 6.425041e-06
 5.564422e-06
 4.735370e-06
 3.973125e-06
 3.305464e-06
 2.751415e-06
 2.321574e-06
 2.019005e-06
 1.839802e-06
 1.773177e-06
 1.801697e-06
 1.902311e-06
 2.048339e-06
 2.212060e-06
 2.367368e-06
 2.492011e-06
 2.569209e-06
 2.588646e-06
 2.547164e-06
 2.449550e-06
 2.309746e-06
 2.152904e-06
 2.020539e-06
 1.992982e-06
 2.319996e-06
 5.261420e-06
 3.621269e-05
 0.000000e+00
 0.000000e+00
 1.680400e-05
 1.104858e-05
 9.648939e-06
 9.315030e-06
 9.341980e-06
 9.477864e-06
 9.635843e-06
 9.787679e-06
 9.924181e-06
 1.004087e-05
 1.013308e-05
 1.019438e-05
 1.021613e-05
 1.018746e-05
 1.009571e-05
 9.927711e-06
 9.671608e-06
 9.319160e-06
 8.867904e-06
 8.322701e-06
 7.696298e-06
 7.008781e-06
 6.285937e-06
 5.556765e-06
 4.850508e-06
 4.193781e-06
 3.608365e-06
 3.109993e-06
 2.708036e-06
 2.405683e-06
 2.200250e-06
 2.083488e-06
 2.042105e-06
 2.058706e-06
 2.113253e-06
 2.184858e-06
 2.253663e-06
 2.302559e-06
 2.318606e-06
 2.294231e-06
 2.228400e-06
 2.128159e-06
 2.010997e-06
 1.908528e-06
 1.871486e-06
 1.973301e-06
 2.303789e-06
 3.554250e-06
 -5.093075e-05
 0.000000e+00
 0.000000e+00
 1.139994e-05
 9.689435e-06
 9.090999e-06
 9.013287e-06
 9.126185e-06
 9.285326e-06
 9.438857e-06
 9.571200e-06
 9.678555e-06
 9.759421e-06
 9.811323e-06
 9.829916e-06
 9.808935e-06
 9.740523e-06
 9.615869e-06
 9.426219e-06
 9.164205e-06
 8.825342e-06
 8.409394e-06
 7.921319e-06
 7.371581e-06
 6.775717e-06
 6.153199e-06
 5.525736e-06
 4.915280e-06
 4.342090e-06
 3.823147e-06
 3.371127e-06
 2.993914e-06
 2.694509e-06
 2.471171e-06
 2.317725e-06
 2.224076e-06
 2.177011e-06
 2.161286e-06
 2.160921e-06
 2.160573e-06
 2.146849e-06
 2.109507e-06
 2.042597e-06
 1.945750e-06
 1.825995e-06
 1.700743e-06
 1.602781e-06
 1.586863e-06
 1.724120e-06
 1.969116e-06
 3.306083e-07
 1.056281e-06
 0.000000e+00
 0.000000e+00
 6.552409e-06
 7.266924e-06
 8.057552e-06
 8.552590e-06
 8.878062e-06
 9.103592e-06
 9.264646e-06
 9.379941e-06
 9.459202e-06
 9.506604e-06
 9.522550e-06
 9.504751e-06
 9.448998e-06
 9.349831e-06
 9.201253e-06
 8.997573e-06
 8.734369e-06
 8.409495e-06
 8.023951e-06
 7.582467e-06
 7.093660e-06
 6.569687e-06
 6.025447e-06
 5.477405e-06
 4.942224e-06
 4.435419e-06
 3.970197e-06
 3.556635e-06
 3.201191e-06
 2.906523e-06
 2.671540e-06
 2.491634e-06
 2.359118e-06
 2.263854e-06
 2.194067e-06
 2.137295e-06
 2.081385e-06
 2.015471e-06
 1.930893e-06
 1.822101e-06
 1.687679e-06
 1.531817e-06
 1.366955e-06
 1.219451e-06
 1.143841e-06
 1.267074e-06
 1.977872e-06
 7.242138e-06
 1.307452e-06
 0.000000e+00
 0.000000e+00
 7.617496e-07
 5.310935e-06
 7.311133e-06
 8.250807e-06
 8.724639e-06
 8.983806e-06
 9.134798e-06
 9.223831e-06
 9.271095e-06
 9.284803e-06
 9.267206e-06
 9.217331e-06
 9.132381e-06
 9.008596e-06
 8.841951e-06
 8.628833e-06
 8.366738e-06
 8.054951e-06
 7.695107e-06
 7.291545e-06
 6.851371e-06
 6.384191e-06
 5.901531e-06
 5.416014e-06
 4.940401e-06
 4.486632e-06
 4.064977e-06
 3.683384e-06
 3.347059e-06
 3.058264e-06
 2.816312e-06
 2.617740e-06
 2.456633e-06
 2.325103e-06
 2.213885e-06
 2.113022e-06
 2.012570e-06
 1.903272e-06
 1.777172e-06
 1.628142e-06
 1.452353e-06
 1.248767e-06
 1.019909e-06
 7.738798e-07
 5.316687e-07
 3.558063e-07
 4.472783e-07
 1.777820e-06
 -8.687160e-05
 0.000000e+00
 0.000000e+00
 -2.121775e-07
 5.530069e-06
 7.508082e-06
 8.363566e-06
 8.764738e-06
 8.963378e-06
 9.063055e-06
 9.107690e-06
 9.115629e-06
 9.093803e-06
 9.043848e-06
 8.964830e-06
 8.854554e-06
 8.710289e-06
 8.529308e-06
 8.309370e-06
 8.049197e-06
 7.748924e-06
 7.410451e-06
 7.037659e-06
 6.636415e-06
 6.214362e-06
 5.780496e-06
 5.344578e-06
 4.916449e-06
 4.505337e-06
 4.119230e-06
 3.764370e-06
 3.444902e-06
 3.162692e-06
 2.917292e-06
 2.706048e-06
 2.524340e-06
 2.365922e-06
 2.223351e-06
 2.088457e-06
 1.952819e-06
 1.808181e-06
 1.646763e-06
 1.461401e-06
 1.245392e-06
 9.918156e-07
 6.917419e-07
 3.297211e-07
 -1.279396e-07
 -7.652216e-07
 -1.800846e-06
 -2.207701e-06
 -1.870188e-05
 0.000000e+00
 0.000000e+00
 7.788834e-06
 8.289572e-06
 8.654021e-06
 8.875163e-06
 8.986362e-06
 9.033199e-06
 9.042565e-06
 9.026540e-06
 8.989128e-06
 8.930540e-06
 8.849355e-06
 8.743504e-06
 8.610716e-06
 8.448779e-06
 8.255784e-06
 8.030378e-06
 7.772056e-06
 7.481431e-06
 7.160452e-06
 6.812527e-06
 6.442498e-06
 6.056476e-06
 5.661528e-06
 5.265249e-06
 4.875268e-06
 4.498742e-06
 4.141884e-06
 3.809579e-06
 3.505098e-06
 3.229940e-06
 2.983784e-06
 2.764548e-06
 2.568557e-06
 2.390774e-06
 2.225098e-06
 2.064667e-06
 1.902154e-06
 1.729979e-06
 1.540390e-06
 1.325300e-06
 1.075725e-06
 7.804424e-07
 4.229515e-07
 -2.584025e-08
 -6.274744e-07
 -1.537413e-06
 -3.214337e-06
 -7.819872e-06
 -5.500292e-05
 0.000000e+00
 0.000000e+00
 1.607393e-05
 1.114130e-05
 9.964725e-06
 9.495324e-06
 9.268632e-06
 9.138035e-06
 9.046204e-06
 8.966204e-06
 8.883563e-06
 8.789777e-06
 8.679499e-06
 8.549127e-06
 8.396074e-06
 8.218421e-06
 8.014811e-06
 7.784491e-06
 7.527445e-06
 7.244537e-06
 6.937644e-06
 6.609714e-06
 6.264736e-06
 5.907606e-06
 5.543897e-06
 5.179542e-06
 4.820474e-06
 4.472254e-06
 4.139714e-06
 3.826663e-06
 3.535664e-06
 3.267892e-06
 3.023086e-06
 2.799575e-06
 2.594385e-06
 2.403395e-06
 2.221523e-06
 2.042920e-06
 1.861126e-06
 1.669148e-06
 1.459387e-06
 1.223350e-06
 9.509865e-07
 6.294551e-07
 2.409382e-07
 -2.410911e-07
 -8.579741e-07
 -1.676229e-06
 -2.828452e-06
 -6.191258e-06
 5.006525e-05
 0.000000e+00
 0.000000e+00
 1.465721e-05
 1.217305e-05
 1.072074e-05
 9.911205e-06
 9.466463e-06
 9.208332e-06
 9.039842e-06
 8.909422e-06
 8.789633e-06
 8.665782e-06
 8.529896e-06
 8.377535e-06
 8.206122e-06
 8.014119e-06
 7.800668e-06
 7.565479e-06
 7.308865e-06
 7.031810e-06
 6.736050e-06
 6.424104e-06
 6.099240e-06
 5.765378e-06
 5.426912e-06
 5.088483e-06
 4.754711e-06
 4.429913e-06
 4.117844e-06
 3.821463e-06
 3.542762e-06
 3.282643e-06
 3.040873e-06
 2.816088e-06
 2.605855e-06
 2.406772e-06
 2.214580e-06
 2.024278e-06
 1.830189e-06
 1.625958e-06
 1.404418e-06
 1.157288e-06
 8.746276e-07
 5.440672e-07
 1.500607e-07
 -3.254098e-07
 -8.942157e-07
 -1.514779e-06
 -1.834074e-06
 1.799939e-06
 1.635873e-05
 0.000000e+00
 0.000000e+00
 1.481447e-05
 1.225719e-05
 1.083537e-05
 9.983593e-06
 9.490883e-06
 9.196100e-06
 8.999167e-06
 8.843994e-06
 8.700812e-06
 8.554370e-06
 8.397058e-06
 8.225155e-06
 8.036865e-06
 7.831359e-06
 7.608361e-06
 7.368007e-06
 7.110850e-06
 6.837919e-06
 6.550771e-06
 6.251521e-06
 5.942823e-06
 5.627794e-06
 5.309886e-06
 4.992719e-06
 4.679878e-06
 4.374710e-06
 4.080121e-06
 3.798401e-06
 3.531085e-06
 3.278855e-06
 3.041496e-06
 2.817886e-06
 2.606033e-06
 2.403133e-06
 2.205638e-06
 2.009314e-06
 1.809265e-06
 1.599896e-06
 1.374770e-06
 1.126353e-06
 8.456154e-07
 5.215656e-07
 1.409677e-07
 -3.109699e-07
 -8.472629e-07
 -1.474321e-06
 -2.246537e-06
 -5.680349e-06
 -3.627032e-05
 0.000000e+00
 0.000000e+00
 1.434917e-05
 1.156203e-05
 1.037693e-05
 9.707416e-06
 9.328210e-06
 9.093254e-06
 8.920932e-06
 8.768859e-06
 8.616442e-06
 8.454426e-06
 8.279107e-06
 8.089311e-06
 7.884907e-06
 7.666157e-06
 7.433478e-06
 7.187415e-06
 6.928700e-06
 6.658340e-06
 6.377684e-06
 6.088465e-06
 5.792795e-06
 5.493118e-06
 5.192116e-06
 4.892587e-06
 4.597297e-06
 4.308823e-06
 4.029402e-06
 3.760792e-06
 3.504170e-06
 3.260045e-06
 3.028223e-06
 2.807791e-06
 2.597135e-06
 2.393977e-06
 2.195416e-06
 1.997958e-06
 1.797526e-06
 1.589412e-06
 1.368168e-06
 1.127409e-06
 8.595194e-07
 5.552822e-07
 2.033739e-07
 -2.107063e-07
 -7.089722e-07
 -1.340447e-06
 -2.253059e-06
 -3.908244e-06
 6.828876e-05
 0.000000e+00
 0.000000e+00
 1.207551e-05
 1.008488e-05
 9.409274e-06
 9.156485e-06
 9.031937e-06
 8.934062e-06
 8.825880e-06
 8.695833e-06
 8.542522e-06
 8.368165e-06
 8.175788e-06
 7.968127e-06
 7.747316e-06
 7.514903e-06
 7.272010e-06
 7.019520e-06
 6.758254e-06
 6.489123e-06
 6.213226e-06
 5.931916e-06
 5.646816e-06
 5.359786e-06
 5.072867e-06
 4.788185e-06
 4.507844e-06
 4.233805e-06
 3.967772e-06
 3.711085e-06
 3.464638e-06
 3.228813e-06
 3.003444e-06
 2.787808e-06
 2.580635e-06
 2.380126e-06
 2.183993e-06
 1.989475e-06
 1.793348e-06
 1.591905e-06
 1.380880e-06
 1.155328e-06
 9.094297e-07
 6.361980e-07
 3.270027e-07
 -2.950059e-08
 -4.505576e-07
 -9.687576e-07
 -1.644139e-06
 -3.713611e-06
 -1.237501e-06
 0.000000e+00
 0.000000e+00
 8.255638e-06
 7.522696e-06
 8.104577e-06
 8.501849e-06
 8.718076e-06
 8.788890e-06
 8.754180e-06
 8.646578e-06
 8.489741e-06
 8.299858e-06
 8.087642e-06
 7.859994e-06
 7.621254e-06
 7.374090e-06
 7.120131e-06
 6.860416e-06
 6.595708e-06
 6.326713e-06
 6.054225e-06
 5.779200e-06
 5.502796e-06
 5.226358e-06
 4.951377e-06
 4.679419e-06
 4.412045e-06
 4.150720e-06
 3.896720e-06
 3.651053e-06
 3.414394e-06
 3.187030e-06
 2.968839e-06
 2.759277e-06
 2.557387e-06
 2.361823e-06
 2.170880e-06
 1.982519e-06
 1.794396e-06
 1.603867e-06
 1.407974e-06
 1.203405e-06
 9.864115e-07
 7.526706e-07
 4.971147e-07
 2.140627e-07
 -1.007345e-07
 -4.422019e-07
 -8.030045e-07
 -2.904832e-06
 6.927395e-05
 0.000000e+00
 0.000000e+00
 -3.239833e-08
 5.097979e-06
 6.995885e-06
 8.033386e-06
 8.549777e-06
 8.747781e-06
 8.753807e-06
 8.645309e-06
 8.469102e-06
 8.253263e-06
 8.014510e-06
 7.762681e-06
 7.503447e-06
 7.239976e-06
 6.973965e-06
 6.706297e-06
 6.437464e-06
 6.167828e-06
 5.897794e-06
 5.627895e-06
 5.358835e-06
 5.091488e-06
 4.826862e-06
 4.566051e-06
 4.310166e-06
 4.060264e-06
 3.817278e-06
 3.581950e-06
 3.354784e-06
 3.136004e-06
 2.925536e-06
 2.723007e-06
 2.527752e-06
 2.338845e-06
 2.155132e-06
 1.975276e-06
 1.797800e-06
 1.621135e-06
 1.443672e-06
 1.263812e-06
 1.080014e-06
 8.908182e-07
 6.947957e-07
 4.906522e-07
 2.798860e-07
 8.815890e-08
 1.081243e-07
 1.399648e-06
 3.504893e-05
 0.000000e+00
 0.000000e+00
 1.291436e-06
 4.082460e-06
 6.700016e-06
 8.066862e-06
 8.687563e-06
 8.890718e-06
 8.863030e-06
 8.708749e-06
 8.486280e-06
 8.228482e-06
 7.953789e-06
 7.672373e-06
 7.389644e-06
 7.108273e-06
 6.829393e-06
 6.553326e-06
 6.280030e-06
 6.009365e-06
 5.741257e-06
 5.475779e-06
 5.213185e-06
 4.953910e-06
 4.698536e-06
 4.447749e-06
 4.202284e-06
 3.962862e-06
 3.730136e-06
 3.504638e-06
 3.286737e-06
 3.076614e-06
 2.874248e-06
 2.679419e-06
 2.491732e-06
 2.310641e-06
 2.135505e-06
 1.965638e-06
 1.800385e-06
 1.639204e-06
 1.481779e-06
 1.328171e-06
 1.179020e-06
 1.035782e-06
 9.007696e-07
 7.759800e-07
 6.569968e-07
 5.095856e-07
 1.883441e-07
 -1.825985e-06
 1.762874e-05
 0.000000e+00
 0.000000e+00
 -3.215060e-06
 4.890739e-06
 7.646769e-06
 8.810307e-06
 9.219722e-06
 9.251475e-06
 9.091648e-06
 8.836359e-06
 8.536510e-06
 8.219291e-06
 7.899033e-06
 7.582942e-06
 7.274239e-06
 6.973952e-06
 6.681951e-06
 6.397572e-06
 6.119977e-06
 5.848371e-06
 5.582121e-06
 5.320808e-06
 5.064243e-06
 4.812449e-06
 4.565631e-06
 4.324123e-06
 4.088345e-06
 3.858743e-06
 3.635740e-06
 3.419697e-06
 3.210879e-06
 3.009434e-06
 2.815390e-06
 2.628666e-06
 2.449097e-06
 2.276476e-06
 2.110612e-06
 1.951405e-06
 1.798934e-06
 1.653577e-06
 1.516165e-06
 1.388212e-06
 1.272279e-06
 1.172572e-06
 1.095832e-06
 1.051790e-06
 1.048253e-06
 1.054516e-06
 8.033836e-07
 -2.989210e-06
 5.260979e-05
 0.000000e+00
 0.000000e+00
 5.952720e-06
 8.910100e-06
 1.000686e-05
 1.024425e-05
 1.010127e-05
 9.790129e-06
 9.408767e-06
 9.004843e-06
 8.602098e-06
 8.212016e-06
 7.839484e-06
 7.485776e-06
 7.150238e-06
 6.831260e-06
 6.526864e-06
 6.235044e-06
 5.953963e-06
 5.682059e-06
 5.418087e-06
 5.161126e-06
 4.910559e-06
 4.666036e-06
 4.427427e-06
 4.194773e-06
 3.968228e-06
 3.748013e-06
 3.534367e-06
 3.327512e-06
 3.127627e-06
 2.934834e-06
 2.749199e-06
 2.570752e-06
 2.399517e-06
 2.235568e-06
 2.079093e-06
 1.930484e-06
 1.790443e-06
 1.660114e-06
 1.541260e-06
 1.436499e-06
 1.349730e-06
 1.286980e-06
 1.258438e-06
 1.283619e-06
 1.404853e-06
 1.723257e-06
 2.502212e-06
 3.470699e-06
 7.133160e-05
 0.000000e+00
 0.000000e+00
 1.772005e-05
 1.466996e-05
 1.313576e-05
 1.201871e-05
 1.113425e-05
 1.039152e-05
 9.744812e-06
 9.170252e-06
 8.653991e-06
 8.186624e-06
 7.760805e-06
 7.370293e-06
 7.009620e-06
 6.673986e-06
 6.359232e-06
 6.061824e-06
 5.778827e-06
 5.507869e-06
 5.247093e-06
 4.995095e-06
 4.750868e-06
 4.513736e-06
 4.283289e-06
 4.059324e-06
 3.841784e-06
 3.630710e-06
 3.426195e-06
 3.228347e-06
 3.037274e-06
 2.853069e-06
 2.675819e-06
 2.505631e-06
 2.342670e-06
 2.187219e-06
 2.039759e-06
 1.901069e-06