<VTKFile type="UnstructuredGrid"  version="0.1"   >
<UnstructuredGrid>  
<Piece  NumberOfPoints="     2601"  NumberOfCells="     5000">  
<Points>  
<DataArray  type="Float64"  NumberOfComponents="3"  format="ascii">  
 0.000000 0.000000 0.000000 
 0.020000 0.000000 0.000000 
 0.040000 0.000000 0.000000 
 0.060000 0.000000 0.000000 
 0.080000 0.000000 0.000000 
 0.100000 0.000000 0.000000 
 0.120000 0.000000 0.000000 
 0.140000 0.000000 0.000000 
 0.160000 0.000000 0.000000 
 0.180000 0.000000 0.000000 
 0.200000 0.000000 0.000000 
 0.220000 0.000000 0.000000 
 0.240000 0.000000 0.000000 
 0.260000 0.000000 0.000000 
 0.280000 0.000000 0.000000 
 0.300000 0.000000 0.000000 
 0.320000 0.000000 0.000000 
 0.340000 0.000000 0.000000 
 0.360000 0.000000 0.000000 
 0.380000 0.000000 0.000000 
 0.400000 0.000000 0.000000 
 0.420000 0.000000 0.000000 
 0.440000 0.000000 0.000000 
 0.460000 0.000000 0.000000 
 0.480000 0.000000 0.000000 
 0.500000 0.000000 0.000000 
 0.520000 0.000000 0.000000 
 0.540000 0.000000 0.000000 
 0.560000 0.000000 0.000000 
 0.580000 0.000000 0.000000 
 0.600000 0.000000 0.000000 
 0.620000 0.000000 0.000000 
 0.640000 0.000000 0.000000 
 0.660000 0.000000 0.000000 
 0.680000 0.000000 0.000000 
 0.700000 0.000000 0.000000 
 0.720000 0.000000 0.000000 
 0.740000 0.000000 0.000000 
 0.760000 0.000000 0.000000 
 0.780000 0.000000 0.000000 
 0.800000 0.000000 0.000000 
 0.820000 0.000000 0.000000 
 0.840000 0.000000 0.000000 
 0.860000 0.000000 0.000000 
 0.880000 0.000000 0.000000 
 0.900000 0.000000 0.000000 
 0.920000 0.000000 0.000000 
 0.940000 0.000000 0.000000 
 0.960000 0.000000 0.000000 
 0.980000 0.000000 0.000000 
 1.000000 0.000000 0.000000 
 0.000000 0.020000 0.000000 
 0.020000 0.020000 0.000000 
 0.040000 0.020000 0.000000 
 0.060000 0.020000 0.000000 
 0.080000 0.020000 0.000000 
 0.100000 0.020000 0.000000 
 0.120000 0.020000 0.000000 
 0.140000 0.020000 0.000000 
 0.160000 0.020000 0.000000 
 0.180000 0.020000 0.000000 
 0.200000 0.020000 0.000000 
 0.220000 0.020000 0.000000 
 0.240000 0.020000 0.000000 
 0.260000 0.020000 0.000000 
 0.280000 0.020000 0.000000 
 0.300000 0.020000 0.000000 
 0.320000 0.020000 0.000000 
 0.340000 0.020000 0.000000 
 0.360000 0.020000 0.000000 
 0.380000 0.020000 0.000000 
 0.400000 0.020000 0.000000 
 0.420000 0.020000 0.000000 
 0.440000 0.020000 0.000000 
 0.460000 0.020000 0.000000 
 0.480000 0.020000 0.000000 
 0.500000 0.020000 0.000000 
 0.520000 0.020000 0.000000 
 0.540000 0.020000 0.000000 
 0.560000 0.020000 0.000000 
 0.580000 0.020000 0.000000 
 0.600000 0.020000 0.000000 
 0.620000 0.020000 0.000000 
 0.640000 0.020000 0.000000 
 0.660000 0.020000 0.000000 
 0.680000 0.020000 0.000000 
 0.700000 0.020000 0.000000 
 0.720000 0.020000 0.000000 
 0.740000 0.020000 0.000000 
 0.760000 0.020000 0.000000 
 0.780000 0.020000 0.000000 
 0.800000 0.020000 0.000000 
 0.820000 0.020000 0.000000 
 0.840000 0.020000 0.000000 
 0.860000 0.020000 0.000000 
 0.880000 0.020000 0.000000 
 0.900000 0.020000 0.000000 
 0.920000 0.020000 0.000000 
 0.940000 0.020000 0.000000 
 0.960000 0.020000 0.000000 
 0.980000 0.020000 0.000000 
 1.000000 0.020000 0.000000 
 0.000000 0.040000 0.000000 
 0.020000 0.040000 0.000000 
 0.040000 0.040000 0.000000 
 0.060000 0.040000 0.000000 
 0.080000 0.040000 0.000000 
 0.100000 0.040000 0.000000 
 0.120000 0.040000 0.000000 
 0.140000 0.040000 0.000000 
 0.160000 0.040000 0.000000 
 0.180000 0.040000 0.000000 
 0.200000 0.040000 0.000000 
 0.220000 0.040000 0.000000 
 0.240000 0.040000 0.000000 
 0.260000 0.040000 0.000000 
 0.280000 0.040000 0.000000 
 0.300000 0.040000 0.000000 
 0.320000 0.040000 0.000000 
 0.340000 0.040000 0.000000 
 0.360000 0.040000 0.000000 
 0.380000 0.040000 0.000000 
 0.400000 0.040000 0.000000 
 0.420000 0.040000 0.000000 
 0.440000 0.040000 0.000000 
 0.460000 0.040000 0.000000 
 0.480000 0.040000 0.000000 
 0.500000 0.040000 0.000000 
 0.520000 0.040000 0.000000 
 0.540000 0.040000 0.000000 
 0.560000 0.040000 0.000000 
 0.580000 0.040000 0.000000 
 0.600000 0.040000 0.000000 
 0.620000 0.040000 0.000000 
 0.640000 0.040000 0.000000 
 0.660000 0.040000 0.000000 
 0.680000 0.040000 0.000000 
 0.700000 0.040000 0.000000 
 0.720000 0.040000 0.000000 
 0.740000 0.040000 0.000000 
 0.760000 0.040000 0.000000 
 0.780000 0.040000 0.000000 
 0.800000 0.040000 0.000000 
 0.820000 0.040000 0.000000 
 0.840000 0.040000 0.000000 
 0.860000 0.040000 0.000000 
 0.880000 0.040000 0.000000 
 0.900000 0.040000 0.000000 
 0.920000 0.040000 0.000000 
 0.940000 0.040000 0.000000 
 0.960000 0.040000 0.000000 
 0.980000 0.040000 0.000000 
 1.000000 0.040000 0.000000 
 0.000000 0.060000 0.000000 
 0.020000 0.060000 0.000000 
 0.040000 0.060000 0.000000 
 0.060000 0.060000 0.000000 
 0.080000 0.060000 0.000000 
 0.100000 0.060000 0.000000 
 0.120000 0.060000 0.000000 
 0.140000 0.060000 0.000000 
 0.160000 0.060000 0.000000 
 0.180000 0.060000 0.000000 
 0.200000 0.060000 0.000000 
 0.220000 0.060000 0.000000 
 0.240000 0.060000 0.000000 
 0.260000 0.060000 0.000000 
 0.280000 0.060000 0.000000 
 0.300000 0.060000 0.000000 
 0.320000 0.060000 0.000000 
 0.340000 0.060000 0.000000 
 0.360000 0.060000 0.000000 
 0.380000 0.060000 0.000000 
 0.400000 0.060000 0.000000 
 0.420000 0.060000 0.000000 
 0.440000 0.060000 0.000000 
 0.460000 0.060000 0.000000 
 0.480000 0.060000 0.000000 
 0.500000 0.060000 0.000000 
 0.520000 0.060000 0.000000 
 0.540000 0.060000 0.000000 
 0.560000 0.060000 0.000000 
 0.580000 0.060000 0.000000 
 0.600000 0.060000 0.000000 
 0.620000 0.060000 0.000000 
 0.640000 0.060000 0.000000 
 0.660000 0.060000 0.000000 
 0.680000 0.060000 0.000000 
 0.700000 0.060000 0.000000 
 0.720000 0.060000 0.000000 
 0.740000 0.060000 0.000000 
 0.760000 0.060000 0.000000 
 0.780000 0.060000 0.000000 
 0.800000 0.060000 0.000000 
 0.820000 0.060000 0.000000 
 0.840000 0.060000 0.000000 
 0.860000 0.060000 0.000000 
 0.880000 0.060000 0.000000 
 0.900000 0.060000 0.000000 
 0.920000 0.060000 0.000000 
 0.940000 0.060000 0.000000 
 0.960000 0.060000 0.000000 
 0.980000 0.060000 0.000000 
 1.000000 0.060000 0.000000 
 0.000000 0.080000 0.000000 
 0.020000 0.080000 0.000000 
 0.040000 0.080000 0.000000 
 0.060000 0.080000 0.000000 
 0.080000 0.080000 0.000000 
 0.100000 0.080000 0.000000 
 0.120000 0.080000 0.000000 
 0.140000 0.080000 0.000000 
 0.160000 0.080000 0.000000 
 0.180000 0.080000 0.000000 
 0.200000 0.080000 0.000000 
 0.220000 0.080000 0.000000 
 0.240000 0.080000 0.000000 
 0.260000 0.080000 0.000000 
 0.280000 0.080000 0.000000 
 0.300000 0.080000 0.000000 
 0.320000 0.080000 0.000000 
 0.340000 0.080000 0.000000 
 0.360000 0.080000 0.000000 
 0.380000 0.080000 0.000000 
 0.400000 0.080000 0.000000 
 0.420000 0.080000 0.000000 
 0.440000 0.080000 0.000000 
 0.460000 0.080000 0.000000 
 0.480000 0.080000 0.000000 
 0.500000 0.080000 0.000000 
 0.520000 0.080000 0.000000 
 0.540000 0.080000 0.000000 
 0.560000 0.080000 0.000000 
 0.580000 0.080000 0.000000 
 0.600000 0.080000 0.000000 
 0.620000 0.080000 0.000000 
 0.640000 0.080000 0.000000 
 0.660000 0.080000 0.000000 
 0.680000 0.080000 0.000000 
 0.700000 0.080000 0.000000 
 0.720000 0.080000 0.000000 
 0.740000 0.080000 0.000000 
 0.760000 0.080000 0.000000 
 0.780000 0.080000 0.000000 
 0.800000 0.080000 0.000000 
 0.820000 0.080000 0.000000 
 0.840000 0.080000 0.000000 
 0.860000 0.080000 0.000000 
 0.880000 0.080000 0.000000 
 0.900000 0.080000 0.000000 
 0.920000 0.080000 0.000000 
 0.940000 0.080000 0.000000 
 0.960000 0.080000 0.000000 
 0.980000 0.080000 0.000000 
 1.000000 0.080000 0.000000 
 0.000000 0.100000 0.000000 
 0.020000 0.100000 0.000000 
 0.040000 0.100000 0.000000 
 0.060000 0.100000 0.000000 
 0.080000 0.100000 0.000000 
 0.100000 0.100000 0.000000 
 0.120000 0.100000 0.000000 
 0.140000 0.100000 0.000000 
 0.160000 0.100000 0.000000 
 0.180000 0.100000 0.000000 
 0.200000 0.100000 0.000000 
 0.220000 0.100000 0.000000 
 0.240000 0.100000 0.000000 
 0.260000 0.100000 0.000000 
 0.280000 0.100000 0.000000 
 0.300000 0.100000 0.000000 
 0.320000 0.100000 0.000000 
 0.340000 0.100000 0.000000 
 0.360000 0.100000 0.000000 
 0.380000 0.100000 0.000000 
 0.400000 0.100000 0.000000 
 0.420000 0.100000 0.000000 
 0.440000 0.100000 0.000000 
 0.460000 0.100000 0.000000 
 0.480000 0.100000 0.000000 
 0.500000 0.100000 0.000000 
 0.520000 0.100000 0.000000 
 0.540000 0.100000 0.000000 
 0.560000 0.100000 0.000000 
 0.580000 0.100000 0.000000 
 0.600000 0.100000 0.000000 
 0.620000 0.100000 0.000000 
 0.640000 0.100000 0.000000 
 0.660000 0.100000 0.000000 
 0.680000 0.100000 0.000000 
 0.700000 0.100000 0.000000 
 0.720000 0.100000 0.000000 
 0.740000 0.100000 0.000000 
 0.760000 0.100000 0.000000 
 0.780000 0.100000 0.000000 
 0.800000 0.100000 0.000000 
 0.820000 0.100000 0.000000 
 0.840000 0.100000 0.000000 
 0.860000 0.100000 0.000000 
 0.880000 0.100000 0.000000 
 0.900000 0.100000 0.000000 
 0.920000 0.100000 0.000000 
 0.940000 0.100000 0.000000 
 0.960000 0.100000 0.000000 
 0.980000 0.100000 0.000000 
 1.000000 0.100000 0.000000 
 0.000000 0.120000 0.000000 
 0.020000 0.120000 0.000000 
 0.040000 0.120000 0.000000 
 0.060000 0.120000 0.000000 
 0.080000 0.120000 0.000000 
 0.100000 0.120000 0.000000 
 0.120000 0.120000 0.000000 
 0.140000 0.120000 0.000000 
 0.160000 0.120000 0.000000 
 0.180000 0.120000 0.000000 
 0.200000 0.120000 0.000000 
 0.220000 0.120000 0.000000 
 0.240000 0.120000 0.000000 
 0.260000 0.120000 0.000000 
 0.280000 0.120000 0.000000 
 0.300000 0.120000 0.000000 
 0.320000 0.120000 0.000000 
 0.340000 0.120000 0.000000 
 0.360000 0.120000 0.000000 
 0.380000 0.120000 0.000000 
 0.400000 0.120000 0.000000 
 0.420000 0.120000 0.000000 
 0.440000 0.120000 0.000000 
 0.460000 0.120000 0.000000 
 0.480000 0.120000 0.000000 
 0.500000 0.120000 0.000000 
 0.520000 0.120000 0.000000 
 0.540000 0.120000 0.000000 
 0.560000 0.120000 0.000000 
 0.580000 0.120000 0.000000 
 0.600000 0.120000 0.000000 
[...]
<PointData  Scalars="U"> 
<DataArray  type="Float64"  Name="U"  format="ascii"> 
 0.000000e+00
 0.000000e+00
 0.000000e+00
 0.000000e+00
 0.000000e+00
 0.000000e+00
 0.000000e+00
 0.000000e+00
 0.000000e+00
 0.000000e+00
 0.000000e+00
 0.000000e+00
 0.000000e+00
 0.000000e+00
 0.000000e+00
 0.000000e+00
 0.000000e+00
 0.000000e+00
 0.000000e+00
 0.000000e+00
 0.000000e+00
 0.000000e+00
 0.000000e+00
 0.000000e+00
 0.000000e+00
 0.000000e+00
 0.000000e+00
 0.000000e+00
 0.000000e+00
 0.000000e+00
 0.000000e+00
 0.000000e+00
 0.000000e+00
 0.000000e+00
 0.000000e+00
 0.000000e+00
 0.000000e+00
 0.000000e+00
 0.000000e+00
 0.000000e+00
 0.000000e+00
 0.000000e+00
 0.000000e+00
 0.000000e+00
 0.000000e+00
 0.000000e+00
 0.000000e+00
 0.000000e+00
 0.000000e+00
 0.000000e+00
 0.000000e+00
 0.000000e+00
 1.121583e-05
 1.881070e-05
 1.742315e-05
 1.048518e-05
 4.553954e-06
 1.823121e-06
 1.820889e-06
 2.238299e-07
 -2.263566e-07
 1.322379e-06
 1.130934e-05
 1.269028e-05
 3.504602e-06
 -3.691049e-06
 3.317369e-06
 1.111320e-05
 1.565670e-05
 1.853507e-05
 2.095360e-05
 1.729707e-05
 1.042084e-05
 1.685049e-05
 1.586662e-05
 6.434114e-06
 -7.274157e-07
 -2.675051e-06
 -1.067862e-06
 -6.267335e-06
 -1.779799e-05
 -2.324451e-05
 -2.208083e-05
 -1.603637e-05
 -7.313671e-06
 -6.827286e-06
 -1.109990e-05
 -1.397167e-05
 -1.157125e-05
 -1.464778e-05
 -1.635656e-05
 -9.148173e-06
 -1.318409e-06
 6.338923e-06
 8.733911e-06
 4.631040e-06
 -6.032947e-06
 -1.005419e-05
 -1.614773e-06
 2.688051e-06
 1.754964e-05
 0.000000e+00
 0.000000e+00
 5.001687e-06
 9.900442e-06
 1.038790e-05
 8.160854e-06
 5.430531e-06
 3.629568e-06
 2.680908e-06
 2.210104e-06
 2.410477e-06
 4.102687e-06
 6.627774e-06
 7.022348e-06
 4.832613e-06
 3.575653e-06
 5.589254e-06
 9.059420e-06
 1.204085e-05
 1.398470e-05
 1.461391e-05
 1.330305e-05
 1.178421e-05
 1.138659e-05
 9.529486e-06
 5.522710e-06
 1.505147e-06
 -1.127866e-06
 -3.313583e-06
 -7.038838e-06
 -1.174771e-05
 -1.471602e-05
 -1.476317e-05
 -1.239105e-05
 -9.655312e-06
 -8.806508e-06
 -9.676739e-06
 -1.045545e-05
 -1.058359e-05
 -1.082410e-05
 -9.864445e-06
 -6.665475e-06
 -2.403912e-06
 1.149953e-06
 2.420544e-06
 7.995706e-07
 -2.135225e-06
 -2.891657e-06
 -1.244723e-07
 4.725322e-06
 3.624476e-05
 0.000000e+00
 0.000000e+00
 3.948557e-06
 6.797045e-06
 7.265321e-06
 6.499285e-06
 5.263074e-06
 4.206557e-06
 3.555649e-06
 3.333141e-06
 3.625151e-06
 4.483843e-06
 5.467706e-06
 5.783991e-06
 5.426705e-06
 5.418468e-06
 6.500582e-06
 8.299022e-06
 1.004443e-05
 1.122213e-05
 1.155802e-05
 1.102654e-05
 1.007483e-05
 8.935634e-06
 7.136847e-06
 4.551755e-06
 1.762818e-06
 -7.621929e-07
 -3.208821e-06
 -5.960188e-06
 -8.713514e-06
 -1.058332e-05
 -1.103993e-05
 -1.032124e-05
 -9.282190e-06
 -8.747672e-06
 -8.806355e-06
 -8.981925e-06
 -8.942551e-06
 -8.563649e-06
 -7.473675e-06
 -5.483404e-06
 -3.061126e-06
 -1.038693e-06
 -1.227628e-07
 -4.297394e-07
 -1.199934e-06
 -1.218405e-06
 1.437018e-07
 4.644726e-06
 -3.371771e-05
 0.000000e+00
 0.000000e+00
 7.458123e-06
 5.376622e-06
 5.462747e-06
 5.280603e-06
 4.825115e-06
 4.344514e-06
 4.023368e-06
 3.952892e-06
 4.172886e-06
 4.635957e-06
 5.139727e-06
 5.451793e-06
 5.605492e-06
 5.922044e-06
 6.642066e-06
 7.659286e-06
 8.653383e-06
 9.323655e-06
 9.491199e-06
 9.133875e-06
 8.362472e-06
 7.237632e-06
 5.692920e-06
 3.750839e-06
 1.614680e-06
 -5.268710e-07
 -2.647140e-06
 -4.750433e-06
 -6.648906e-06
 -8.004520e-06
 -8.610601e-06
 -8.573613e-06
 -8.248693e-06
 -7.980936e-06
 -7.868734e-06
 -7.783925e-06
 -7.556293e-06
 -7.045723e-06
 -6.124485e-06
 -4.794272e-06
 -3.297052e-06
 -2.020480e-06
 -1.275780e-06
 -1.089626e-06
 -1.153321e-06
 -1.070202e-06
 -8.827175e-07
 -2.565952e-06
 -3.501785e-05
 0.000000e+00
 0.000000e+00
 2.459894e-06
 3.558447e-06
 4.086562e-06
 4.363738e-06
 4.393561e-06
 4.305714e-06
 4.234969e-06
 4.269850e-06
 4.445094e-06
 4.734499e-06
 5.057378e-06
 5.340861e-06
 5.603787e-06
 5.949214e-06
 6.448853e-06
 7.051548e-06
 7.607788e-06
 7.954327e-06
 7.978722e-06
 7.643888e-06
 6.969522e-06
 5.979930e-06
 4.687624e-06
 3.139309e-06
 1.434836e-06
 -3.217648e-07
 -2.060582e-06
 -3.711834e-06
 -5.153468e-06
 -6.235045e-06
 -6.872030e-06
 -7.112061e-06
 -7.107718e-06
 -7.015060e-06
 -6.901816e-06
 -6.737896e-06
 -6.448390e-06
 -5.960032e-06
 -5.232002e-06
 -4.299926e-06
 -3.299164e-06
 -2.418853e-06
 -1.805037e-06
 -1.476686e-06
 -1.322681e-06
 -1.211811e-06
 -1.160112e-06
 -1.258603e-06
 1.680620e-05
 0.000000e+00
 0.000000e+00
 3.199992e-07
 1.808315e-06
 3.002507e-06
 3.715932e-06
 4.077752e-06
 4.240894e-06
 4.332304e-06
 4.436138e-06
 4.592065e-06
 4.799690e-06
 5.032823e-06
 5.268485e-06
 5.513407e-06
 5.797521e-06
 6.134487e-06
 6.488959e-06
 6.781486e-06
 6.920870e-06
 6.836343e-06
 6.493004e-06
 5.887254e-06
 5.031748e-06
 3.949855e-06
 2.684201e-06
 1.298726e-06
 -1.352419e-07
 -1.550128e-06
 -2.875619e-06
 -4.030103e-06
 -4.935229e-06
 -5.550307e-06
 -5.895171e-06
 -6.037490e-06
 -6.051426e-06
 -5.978707e-06
 -5.818443e-06
 -5.543895e-06
 -5.127239e-06
 -4.562550e-06
 -3.884844e-06
 -3.173296e-06
 -2.527168e-06
 -2.023544e-06
 -1.684018e-06
 -1.475619e-06
 -1.340026e-06
 -1.152482e-06
 6.297265e-07
 -1.795847e-05
 0.000000e+00
 0.000000e+00
 -2.662334e-06
 5.847042e-07
 2.419537e-06
 3.421881e-06
 3.955474e-06
 4.240269e-06
 4.409711e-06
 4.543404e-06
 4.682497e-06
 4.839873e-06
 5.011786e-06
 5.191876e-06
 5.380877e-06
 5.583511e-06
 5.794422e-06
 5.986441e-06
 6.112258e-06
 6.117911e-06
 5.958364e-06
 5.606890e-06
 5.055966e-06
 4.313416e-06
 3.400028e-06
 2.350041e-06
 1.209805e-06
 3.253541e-08
 -1.126372e-06
 -2.210238e-06
 -3.162745e-06
 -3.936705e-06
 -4.507695e-06
 -4.881820e-06
 -5.089274e-06
 -5.166498e-06
 -5.138687e-06
 -5.013197e-06
 -4.785191e-06
 -4.449732e-06
 -4.014356e-06
 -3.507553e-06
 -2.978062e-06
 -2.482644e-06
 -2.067736e-06
 -1.756868e-06
 -1.554040e-06
 -1.463961e-06
 -1.548197e-06
 -2.940837e-06
 -1.826177e-05
 0.000000e+00
 0.000000e+00
 -4.222394e-06
 7.157693e-07
 2.635491e-06
 3.572385e-06
 4.068549e-06
 4.346468e-06
 4.516580e-06
 4.640496e-06
 4.751761e-06
 4.865192e-06
 4.984165e-06
 5.107397e-06
 5.232954e-06
 5.357141e-06
 5.469525e-06
 5.548974e-06
 5.564880e-06
 5.483473e-06
 5.275660e-06
 4.922716e-06
 4.418349e-06
 3.768228e-06
 2.988971e-06
 2.107252e-06
 1.158125e-06
 1.821725e-07
 -7.774684e-07
 -1.677552e-06
 -2.477906e-06
 -3.146693e-06
 -3.666331e-06
 -4.036163e-06
 -4.269059e-06
 -4.383257e-06
 -4.394139e-06
 -4.310445e-06
 -4.136127e-06
 -3.875897e-06
 -3.541327e-06
 -3.154491e-06
 -2.746870e-06
 -2.353295e-06
 -2.004132e-06
 -1.721479e-06
 -1.524971e-06
 -1.449605e-06
 -1.558671e-06
 -1.173551e-06
 1.660139e-05
 0.000000e+00
 0.000000e+00
 5.765848e-07
 2.947334e-06
 3.701059e-06
 4.120902e-06
 4.384340e-06
 4.553257e-06
 4.665209e-06
 4.747143e-06
 4.816951e-06
 4.884266e-06
 4.952340e-06
 5.020426e-06
 5.085246e-06
 5.140623e-06
 5.175825e-06
 5.174478e-06
 5.115669e-06
 4.977281e-06
 4.740235e-06
 4.391964e-06
 3.928295e-06
 3.353880e-06
 2.681817e-06
 1.932791e-06
 1.133670e-06
 3.155348e-07
 -4.885607e-07
 -1.245952e-06
 -1.927107e-06
 -2.508842e-06
 -2.977179e-06
 -3.328334e-06
 -3.566925e-06
 -3.702050e-06
 -3.743263e-06
 -3.698429e-06
 -3.574188e-06
 -3.378295e-06
 -3.122286e-06
 -2.822837e-06
 -2.500773e-06
 -2.177873e-06
 -1.873245e-06
 -1.602235e-06
 -1.381730e-06
 -1.248942e-06
 -1.321959e-06
 -2.713103e-06
 -1.822755e-05
 0.000000e+00
 0.000000e+00
 9.987025e-06
 5.968070e-06
 5.033949e-06
 4.814264e-06
 4.791853e-06
 4.815438e-06
 4.842340e-06
 4.864499e-06
 4.883553e-06
 4.901940e-06
 4.920142e-06
 4.936280e-06
 4.946206e-06
 4.943272e-06
 4.917844e-06
 4.857221e-06
 4.746565e-06
 4.570885e-06
 4.317476e-06
 3.978103e-06
 3.550405e-06
 3.038460e-06
 2.452672e-06
 1.809135e-06
 1.128560e-06
 4.348034e-07
 -2.468619e-07
 -8.916504e-07
 -1.477315e-06
 -1.986177e-06
 -2.406674e-06
 -2.733821e-06
 -2.968275e-06
 -3.114394e-06
 -3.178173e-06
 -3.165997e-06
 -3.084569e-06
 -2.941737e-06
 -2.747444e-06
 -2.513978e-06
 -2.254996e-06
 -1.983386e-06
 -1.708678e-06
 -1.435061e-06
 -1.160862e-06
 -8.804166e-07
 -5.994930e-07
 -9.547710e-07
 3.467270e-05
 0.000000e+00
 0.000000e+00
 1.172673e-05
 7.040954e-06
 5.819978e-06
 5.356307e-06
 5.167854e-06
 5.079021e-06
 5.025464e-06
 4.984945e-06
 4.950437e-06
 4.919397e-06
 4.889645e-06
 4.857939e-06
 4.819515e-06
 4.767873e-06
 4.694672e-06
 4.589954e-06
 4.442879e-06
 4.242985e-06
 3.981685e-06
 3.653659e-06
 3.257830e-06
 2.797847e-06
 2.282054e-06
 1.723049e-06
 1.136873e-06
 5.419033e-07
 -4.246140e-08
 -5.972471e-07
 -1.105378e-06
 -1.553013e-06
 -1.930491e-06
 -2.232618e-06
 -2.458210e-06
 -2.609105e-06
 -2.689064e-06
 -2.703002e-06
 -2.656726e-06
 -2.557070e-06
 -2.412037e-06
 -2.230519e-06
 -2.021272e-06
 -1.791064e-06
 -1.541989e-06
 -1.267664e-06
 -9.465000e-07
 -5.235725e-07
 1.733380e-07
 2.764325e-06
 4.496933e-07
 0.000000e+00
 0.000000e+00
 5.403405e-06
 6.341006e-06
 5.971574e-06
 5.665081e-06
 5.460051e-06
 5.313367e-06
 5.197695e-06
 5.099964e-06
 5.013847e-06
 4.935367e-06
 4.860844e-06
 4.786023e-06
 4.705729e-06
 4.613746e-06
 4.502856e-06
 4.365098e-06
 4.192328e-06
 3.977045e-06
 3.713345e-06
 3.397816e-06
 3.030206e-06
 2.613762e-06
 2.155230e-06
 1.664530e-06
 1.154153e-06
 6.383288e-07
 1.320405e-07
 -3.500490e-07
 -7.946517e-07
 -1.190773e-06
 -1.530345e-06
 -1.808456e-06
 -2.023151e-06
 -2.174926e-06
 -2.266116e-06
 -2.300392e-06
 -2.282470e-06
 -2.217949e-06
 -2.113119e-06
 -1.974478e-06
 -1.807756e-06
 -1.616257e-06
 -1.398228e-06
 -1.142537e-06
 -8.211675e-07
 -3.789192e-07
 2.400643e-07
 -1.777627e-07
 -1.698876e-05
 0.000000e+00
 0.000000e+00
 5.915426e-06
 5.927824e-06
 5.982950e-06
 5.870335e-06
 5.697775e-06
 5.519044e-06
 5.353003e-06
 5.203701e-06
 5.069637e-06
 4.947271e-06
 4.832183e-06
 4.719402e-06
 4.603457e-06
 4.478395e-06
 4.337869e-06
 4.175357e-06
 3.984560e-06
 3.759945e-06
 3.497368e-06
 3.194648e-06
 2.852007e-06
 2.472302e-06
 2.061008e-06
 1.625983e-06
 1.177007e-06
 7.251654e-07
 2.821106e-07
 -1.407278e-07
 -5.329063e-07
 -8.856208e-07
 -1.192163e-06
 -1.448121e-06
 -1.651316e-06
 -1.801550e-06
 -1.900249e-06
 -1.950131e-06
 -1.954935e-06
 -1.919184e-06
 -1.847902e-06
 -1.746140e-06
 -1.618219e-06
 -1.466500e-06
 -1.289459e-06
 -1.078372e-06
 -8.110652e-07
 -4.376557e-07
 1.751684e-07
 2.997558e-06
 1.792713e-05
 0.000000e+00
 0.000000e+00
 5.622489e-06
 5.819319e-06
 6.157537e-06
 6.124519e-06
 5.936235e-06
 5.709881e-06
 5.490792e-06
 5.291915e-06
 5.113604e-06
 4.951808e-06
 4.801134e-06
 4.655865e-06
 4.510231e-06
 4.358474e-06
 4.194901e-06
 4.014028e-06
 3.810840e-06
 3.581139e-06
 3.321941e-06
 3.031845e-06
 2.711318e-06
 2.362832e-06
 1.990844e-06
 1.601606e-06
 1.202822e-06
 8.031777e-07
 4.117969e-07
 3.765467e-08
 -3.109815e-07
 -6.270309e-07
 -9.049437e-07
 -1.140879e-06
 -1.332714e-06
 -1.479922e-06
 -1.583366e-06
 -1.645079e-06
 -1.668041e-06
 -1.655967e-06
 -1.613052e-06
 -1.543656e-06
 -1.451863e-06
 -1.340941e-06
 -1.212661e-06
 -1.066392e-06
 -8.975669e-07
 -6.944071e-07
 -4.375519e-07
 -5.285361e-07
 -5.244658e-05
 0.000000e+00
 0.000000e+00
 3.314004e-06
 6.326950e-06
 6.701469e-06
 6.512604e-06
 6.201339e-06
 5.888661e-06
 5.606570e-06
 5.358957e-06
 5.140882e-06
 4.945187e-06
 4.764677e-06
 4.592692e-06
 4.423137e-06
 4.250402e-06
 4.069307e-06
 3.875150e-06
 3.663837e-06
 3.432098e-06
 3.177726e-06
 2.899814e-06
 2.598923e-06
 2.277166e-06
 1.938175e-06
 1.586944e-06
 1.229570e-06
 8.729016e-07
 5.241243e-07
 1.903295e-07
 -1.219036e-07
 -4.068672e-07
 -6.599922e-07
 -8.780053e-07
 -1.058973e-06
 -1.202252e-06
 -1.308374e-06
 -1.378901e-06
 -1.416268e-06
 -1.423618e-06
 -1.404644e-06
 -1.363434e-06
 -1.304392e-06
 -1.232354e-06
 -1.153240e-06
 -1.075861e-06
 -1.016243e-06
 -1.007020e-06
 -1.116825e-06
 -8.121883e-07
 1.690551e-05
 0.000000e+00
 0.000000e+00
 8.959141e-06
 8.493111e-06
 7.654897e-06
 6.984473e-06
 6.456219e-06
 6.033034e-06
 5.686682e-06
 5.396197e-06
 5.145811e-06
 4.923480e-06
 4.719792e-06
 4.527167e-06
 4.339294e-06
 4.150765e-06
 3.956875e-06
 3.753562e-06
 3.537438e-06
 3.305906e-06
 3.057300e-06
 2.791023e-06
 2.507649e-06
 2.208966e-06
 1.897932e-06
 1.578550e-06
 1.255671e-06
 9.347178e-07
 6.213823e-07
 3.212950e-07
 3.971161e-08
 -2.187612e-07
 -4.503786e-07
 -6.523936e-07
 -8.231172e-07
 -9.619094e-07
 -1.069121e-06
 -1.146003e-06
 -1.194603e-06
 -1.217659e-06
 -1.218517e-06
 -1.201105e-06
 -1.170065e-06
 -1.131263e-06
 -1.093155e-06
 -1.070082e-06
 -1.090003e-06
 -1.212175e-06
 -1.556674e-06
 -2.147647e-06
 -3.591964e-05
 0.000000e+00
 0.000000e+00
 1.752334e-05
 1.053406e-05
 8.423225e-06
 7.315215e-06
 6.607686e-06
 6.101765e-06
 5.711778e-06
 5.393946e-06
 5.123117e-06
 4.883431e-06
 4.664050e-06
 4.457036e-06
 4.256220e-06
 4.056591e-06
 3.853980e-06
 3.644915e-06
 3.426602e-06
 3.196969e-06
 2.954743e-06
 2.699532e-06
 2.431882e-06
 2.153294e-06
 1.866178e-06
 1.573753e-06
 1.279890e-06
 9.889060e-07
 7.053285e-07
 4.336464e-07
 1.780706e-07
 -5.767927e-08
 -2.705454e-07
 -4.582498e-07
 -6.193588e-07
 -7.532985e-07
 -8.603304e-07
 -9.415015e-07
 -9.985800e-07
 -1.033991e-06
 -1.050771e-06
 -1.052587e-06
 -1.043884e-06
 -1.030351e-06
 -1.020050e-06
 -1.025994e-06
 -1.072049e-06
 -1.208986e-06
 -1.587657e-06
 -3.848077e-06
 1.639235e-05
 0.000000e+00
 0.000000e+00
 1.326113e-05
 1.012299e-05
 8.388660e-06
 7.292607e-06
 6.572557e-06
 6.060586e-06
 5.667513e-06
 5.346119e-06
 5.070066e-06
 4.823533e-06
 4.596223e-06
 4.380893e-06
 4.172093e-06
 3.965515e-06
 3.757648e-06
 3.545634e-06
 3.327220e-06
 3.100772e-06
 2.865328e-06
 2.620639e-06
 2.367208e-06
 2.106287e-06
 1.839842e-06
 1.570468e-06
 1.301265e-06
 1.035681e-06
 7.773321e-07
 5.298084e-07
 2.964920e-07
 8.038734e-08
 -1.160160e-07
 -2.908456e-07
 -4.429099e-07
 -5.717266e-07
 -6.775208e-07
 -7.612018e-07
 -8.243259e-07
 -8.690537e-07
 -8.981129e-07
 -9.147783e-07
 -9.228914e-07
 -9.269500e-07
 -9.323100e-07
 -9.454740e-07
 -9.737918e-07
 -1.018152e-06
 -9.991227e-07
 5.762743e-07
 1.691396e-05
 0.000000e+00
 0.000000e+00
 9.034347e-06
 8.799132e-06
 7.713650e-06
 6.914915e-06
 6.342184e-06
 5.906991e-06
 5.554765e-06
 5.254569e-06
 4.988350e-06
 4.744891e-06
 4.516700e-06
 4.298399e-06
 4.085876e-06
 3.875832e-06
 3.665562e-06
 3.452858e-06
 3.235981e-06
 3.013693e-06
 2.785283e-06
 2.550615e-06
 2.310143e-06
 2.064910e-06
 1.816522e-06
 1.567071e-06
 1.319049e-06
 1.075218e-06
 8.384746e-07
 6.116996e-07
 3.976147e-07
 1.986487e-07
 1.682514e-08
 -1.463257e-07
 -2.898271e-07
 -4.132914e-07
 -5.169323e-07
 -6.015598e-07
 -6.685620e-07
 -7.198754e-07
 -7.579405e-07
 -7.856283e-07
 -8.060926e-07
 -8.224433e-07
 -8.369928e-07
 -8.495428e-07
 -8.538337e-07
 -8.332779e-07
 -7.887822e-07
 -1.985512e-06
 -1.781542e-05
 0.000000e+00
 0.000000e+00
 1.083177e-05
 7.329164e-06
 6.700472e-06
 6.315533e-06
 5.980717e-06
 5.674226e-06
 5.391990e-06
 5.130106e-06
 4.884457e-06
 4.651313e-06
 4.427487e-06
 4.210259e-06
 3.997273e-06
 3.786455e-06
 3.575991e-06
 3.364334e-06
 3.150244e-06
 2.932829e-06
 2.711597e-06
 2.486495e-06
 2.257931e-06
 2.026773e-06
 1.794329e-06
 1.562292e-06
 1.332664e-06
 1.107665e-06
 8.896215e-07
 6.808514e-07
 4.835502e-07
 2.996847e-07
 1.309004e-07
 -2.155386e-08
 -1.568822e-07
 -2.747796e-07
 -3.754539e-07
 -4.596348e-07
 -5.285718e-07
 -5.840188e-07
 -6.281971e-07
 -6.637050e-07
 -6.932987e-07
 -7.193712e-07
 -7.427401e-07
 -7.599154e-07
 -7.571504e-07
 -6.980810e-07
 -5.000991e-07
 1.363604e-07
 3.477463e-05
 0.000000e+00
 0.000000e+00
 3.316243e-06
 4.950600e-06
 5.557804e-06
 5.680186e-06
 5.591864e-06
 5.417022e-06
 5.208835e-06
 4.989488e-06
 4.768155e-06
 4.548496e-06
 4.331733e-06
 4.117925e-06
 3.906545e-06
 3.696768e-06
 3.487661e-06
 3.278303e-06
 3.067899e-06
 2.855856e-06
 2.641859e-06
 2.425916e-06
 2.208385e-06
 1.989987e-06
 1.771783e-06
 1.555139e-06
 1.341668e-06
 1.133155e-06
 9.314744e-07
 7.384957e-07
 5.559959e-07
 3.855730e-07
 2.285698e-07
 8.600972e-08
 -4.145413e-08
 -1.535780e-07
 -2.505556e-07
 -3.330386e-07
 -4.021506e-07
 -4.594967e-07
 -5.071580e-07
 -5.476527e-07
 -5.838021e-07
 -6.183671e-07
 -6.531397e-07
 -6.867723e-07
 -7.095203e-07
 -6.880130e-07
 -4.953212e-07
 8.881167e-07
 -1.754846e-05
 0.000000e+00
 0.000000e+00
 -1.500959e-06
 3.536710e-06
 4.854373e-06
 5.232145e-06
 5.278773e-06
 5.188584e-06
 5.034932e-06
 4.850049e-06
 4.649814e-06
 4.442606e-06
 4.232932e-06
 4.023118e-06
 3.814194e-06
 3.606416e-06
 3.399601e-06
 3.193354e-06
 2.987237e-06
 2.780892e-06
 2.574127e-06
 2.366983e-06
 2.159765e-06
 1.953059e-06
 1.747718e-06
 1.544842e-06
 1.345728e-06
 1.151813e-06
 9.646095e-07
 7.856310e-07
 6.163219e-07
 4.579880e-07
 3.117338e-07
 1.784086e-07
 5.856084e-08
 -4.759913e-08
 -1.402310e-07
 -2.198935e-07
 -2.875758e-07
 -3.447344e-07
 -3.933419e-07
 -4.359489e-07
 -4.757593e-07
 -5.167047e-07
 -5.634738e-07
 -6.213888e-07
 -6.962249e-07
 -7.983791e-07
 -1.001578e-06
 -2.506697e-06
 -5.208022e-07
 0.000000e+00
 0.000000e+00
 3.281895e-06
 4.490824e-06
 4.898904e-06
 5.063603e-06
 5.086594e-06
 5.017898e-06
 4.889881e-06
 4.724830e-06
 4.537847e-06
 4.338838e-06
 4.134066e-06
 3.927296e-06
 3.720626e-06
 3.515069e-06
 3.310968e-06
 3.108289e-06
 2.906833e-06
 2.706385e-06
 2.506819e-06
 2.308172e-06
 2.110680e-06
 1.914805e-06
 1.721222e-06
 1.530808e-06
 1.344601e-06
 1.163761e-06
 9.895077e-07
 8.230735e-07
 6.656390e-07
 5.182805e-07
 3.819185e-07
 2.572734e-07
 1.448263e-07
 4.478514e-08
 -4.294714e-08
 -1.188064e-07
 -1.836102e-07
 -2.386192e-07
 -2.856349e-07
 -3.271641e-07
 -3.667117e-07
 -4.093326e-07
 -4.627085e-07
 -5.392368e-07
 -6.595765e-07
 -8.550176e-07
 -1.139828e-06
 -1.282416e-06
 1.671639e-05
 0.000000e+00
 0.000000e+00
 1.002019e-05
 5.894304e-06
 5.162279e-06
 5.030609e-06
 4.983629e-06
 4.904928e-06
 4.780682e-06
 4.620691e-06
 4.437308e-06
 4.240427e-06
 4.036926e-06
 3.831198e-06
 3.625836e-06
 3.422205e-06
 3.220886e-06
 3.022000e-06
 2.825438e-06
 2.631024e-06
 2.438628e-06
 2.248241e-06
 2.060017e-06
 1.874291e-06
 1.691585e-06
 1.512585e-06
 1.338120e-06
 1.169121e-06
 1.006579e-06
 8.514986e-07
 7.048541e-07
 5.675428e-07
 4.403463e-07
 3.238947e-07
 2.186351e-07
 1.248043e-07
 4.240063e-08
 -2.884777e-08
 -8.952786e-08
 -1.406116e-07
 -1.835743e-07
 -2.206055e-07
 -2.550017e-07
 -2.919450e-07
 -3.401383e-07
 -4.154054e-07
 -5.485831e-07
 -8.001066e-07
 -1.262402e-06
 -1.919065e-06
 -8.000600e-07
 0.000000e+00
 0.000000e+00
 7.833485e-06
 5.374274e-06
 5.014858e-06
 4.962184e-06
 4.925034e-06
 4.840228e-06
 4.707311e-06
 4.539441e-06
 4.349741e-06
 4.148221e-06
 3.941714e-06
 3.734536e-06
 3.529189e-06
 3.326954e-06
 3.128335e-06
 2.933378e-06
 2.741903e-06
 2.553664e-06
 2.368456e-06
 2.186179e-06
 2.006885e-06
 1.830787e-06
 1.658264e-06
 1.489845e-06
 1.326184e-06
 1.168027e-06
 1.016182e-06
 8.714754e-07
 7.347164e-07
 6.066649e-07
 4.879988e-07
 3.792887e-07
 2.809755e-07
 1.933514e-07
 1.165413e-07
 5.047969e-08
 -5.123383e-09
 -5.083931e-08
 -8.762034e-08
 -1.169749e-07
 -1.412826e-07
 -1.643827e-07
 -1.927759e-07
 -2.384740e-07
 -3.273190e-07
 -5.293036e-07
 -1.094183e-06
 -4.435240e-06
 1.659012e-05
 0.000000e+00
 0.000000e+00
 7.190928e-07
 3.821154e-06
 4.662051e-06
 4.907937e-06
 4.921977e-06
 4.825130e-06
 4.668657e-06
 4.479439e-06
 4.273450e-06
 4.060582e-06
 3.846877e-06
 3.635841e-06
 3.429302e-06
 3.228016e-06
 3.032086e-06
 2.841263e-06
 2.655139e-06
 2.473294e-06
 2.295377e-06
 2.121163e-06
 1.950584e-06
 1.783733e-06
 1.620861e-06
 1.462363e-06
 1.308751e-06
 1.160626e-06
 1.018645e-06
 8.834956e-07
 7.558576e-07
 6.363834e-07
 5.256737e-07
 4.242611e-07
 3.325990e-07
 2.510532e-07
 1.798967e-07
 1.193028e-07
 6.933247e-08
 2.990897e-08
 7.689070e-10
 -1.861999e-08
 -2.917769e-08
 -3.233280e-08
 -2.999162e-08
 -2.388823e-08
 -1.321196e-08
 1.131084e-08
 7.931774e-08
 -4.186228e-07
 5.231200e-05
 0.000000e+00
 0.000000e+00
 8.624151e-08
 3.710726e-06
 4.790590e-06
 5.055678e-06
 5.020700e-06
 4.866250e-06
 4.661111e-06
 4.435250e-06
 4.203421e-06