<VTKFile type="UnstructuredGrid"  version="0.1"   >
<UnstructuredGrid>  
<Piece  NumberOfPoints="     2601"  NumberOfCells="     5000">  
<Points>  
<DataArray  type="Float64"  NumberOfComponents="3"  format="ascii">  
 0.000000 0.000000 0.000000 
 0.020000 0.000000 0.000000 
 0.040000 0.000000 0.000000 
 0.060000 0.000000 0.000000 
 0.080000 0.000000 0.000000 
 0.100000 0.000000 0.000000 
 0.120000 0.000000 0.000000 
 0.140000 0.000000 0.000000 
 0.160000 0.000000 0.000000 
 0.180000 0.000000 0.000000 
 0.200000 0.000000 0.000000 
 0.220000 0.000000 0.000000 
 0.240000 0.000000 0.000000 
 0.260000 0.000000 0.000000 
 0.280000 0.000000 0.000000 
 0.300000 0.000000 0.000000 
 0.320000 0.000000 0.000000 
 0.340000 0.000000 0.000000 
 0.360000 0.000000 0.000000 
 0.380000 0.000000 0.000000 
 0.400000 0.000000 0.000000 
 0.420000 0.000000 0.000000 
 0.440000 0.000000 0.000000 
 0.460000 0.000000 0.000000 
 0.480000 0.000000 0.000000 
 0.500000 0.000000 0.000000 
 0.520000 0.000000 0.000000 
 0.540000 0.000000 0.000000 
 0.560000 0.000000 0.000000 
 0.580000 0.000000 0.000000 
 0.600000 0.000000 0.000000 
 0.620000 0.000000 0.000000 
 0.640000 0.000000 0.000000 
 0.660000 0.000000 0.000000 
 0.680000 0.000000 0.000000 
 0.700000 0.000000 0.000000 
 0.720000 0.000000 0.000000 
 0.740000 0.000000 0.000000 
 0.760000 0.000000 0.000000 
 0.780000 0.000000 0.000000 
 0.800000 0.000000 0.000000 
 0.820000 0.000000 0.000000 
 0.840000 0.000000 0.000000 
 0.860000 0.000000 0.000000 
 0.880000 0.000000 0.000000 
 0.900000 0.000000 0.000000 
 0.920000 0.000000 0.000000 
 0.940000 0.000000 0.000000 
 0.960000 0.000000 0.000000 
 0.980000 0.000000 0.000000 
 1.000000 0.000000 0.000000 
 0.000000 0.020000 0.000000 
 0.020000 0.020000 0.000000 
 0.040000 0.020000 0.000000 
 0.060000 0.020000 0.000000 
 0.080000 0.020000 0.000000 
 0.100000 0.020000 0.000000 
 0.120000 0.020000 0.000000 
 0.140000 0.020000 0.000000 
 0.160000 0.020000 0.000000 
 0.180000 0.020000 0.000000 
 0.200000 0.020000 0.000000 
 0.220000 0.020000 0.000000 
 0.240000 0.020000 0.000000 
 0.260000 0.020000 0.000000 
 0.280000 0.020000 0.000000 
 0.300000 0.020000 0.000000 
 0.320000 0.020000 0.000000 
 0.340000 0.020000 0.000000 
 0.360000 0.020000 0.000000 
 0.380000 0.020000 0.000000 
 0.400000 0.020000 0.000000 
 0.420000 0.020000 0.000000 
 0.440000 0.020000 0.000000 
 0.460000 0.020000 0.000000 
 0.480000 0.020000 0.000000 
 0.500000 0.020000 0.000000 
 0.520000 0.020000 0.000000 
 0.540000 0.020000 0.000000 
 0.560000 0.020000 0.000000 
 0.580000 0.020000 0.000000 
 0.600000 0.020000 0.000000 
 0.620000 0.020000 0.000000 
 0.640000 0.020000 0.000000 
 0.660000 0.020000 0.000000 
 0.680000 0.020000 0.000000 
 0.700000 0.020000 0.000000 
 0.720000 0.020000 0.000000 
 0.740000 0.020000 0.000000 
 0.760000 0.020000 0.000000 
 0.780000 0.020000 0.000000 
 0.800000 0.020000 0.000000 
 0.820000 0.020000 0.000000 
 0.840000 0.020000 0.000000 
 0.860000 0.020000 0.000000 
 0.880000 0.020000 0.000000 
 0.900000 0.020000 0.000000 
 0.920000 0.020000 0.000000 
 0.940000 0.020000 0.000000 
 0.960000 0.020000 0.000000 
 0.980000 0.020000 0.000000 
 1.000000 0.020000 0.000000 
 0.000000 0.040000 0.000000 
 0.020000 0.040000 0.000000 
 0.040000 0.040000 0.000000 
 0.060000 0.040000 0.000000 
 0.080000 0.040000 0.000000 
 0.100000 0.040000 0.000000 
 0.120000 0.040000 0.000000 
 0.140000 0.040000 0.000000 
 0.160000 0.040000 0.000000 
 0.180000 0.040000 0.000000 
 0.200000 0.040000 0.000000 
 0.220000 0.040000 0.000000 
 0.240000 0.040000 0.000000 
 0.260000 0.040000 0.000000 
 0.280000 0.040000 0.000000 
 0.300000 0.040000 0.000000 
 0.320000 0.040000 0.000000 
 0.340000 0.040000 0.000000 
 0.360000 0.040000 0.000000 
 0.380000 0.040000 0.000000 
 0.400000 0.040000 0.000000 
 0.420000 0.040000 0.000000 
 0.440000 0.040000 0.000000 
 0.460000 0.040000 0.000000 
 0.480000 0.040000 0.000000 
 0.500000 0.040000 0.000000 
 0.520000 0.040000 0.000000 
 0.540000 0.040000 0.000000 
 0.560000 0.040000 0.000000 
 0.580000 0.040000 0.000000 
 0.600000 0.040000 0.000000 
 0.620000 0.040000 0.000000 
 0.640000 0.040000 0.000000 
 0.660000 0.040000 0.000000 
 0.680000 0.040000 0.000000 
 0.700000 0.040000 0.000000 
 0.720000 0.040000 0.000000 
 0.740000 0.040000 0.000000 
 0.760000 0.040000 0.000000 
 0.780000 0.040000 0.000000 
 0.800000 0.040000 0.000000 
 0.820000 0.040000 0.000000 
 0.840000 0.040000 0.000000 
 0.860000 0.040000 0.000000 
 0.880000 0.040000 0.000000 
 0.900000 0.040000 0.000000 
 0.920000 0.040000 0.000000 
 0.940000 0.040000 0.000000 
 0.960000 0.040000 0.000000 
 0.980000 0.040000 0.000000 
 1.000000 0.040000 0.000000 
 0.000000 0.060000 0.000000 
 0.020000 0.060000 0.000000 
 0.040000 0.060000 0.000000 
 0.060000 0.060000 0.000000 
 0.080000 0.060000 0.000000 
 0.100000 0.060000 0.000000 
 0.120000 0.060000 0.000000 
 0.140000 0.060000 0.000000 
 0.160000 0.060000 0.000000 
 0.180000 0.060000 0.000000 
 0.200000 0.060000 0.000000 
 0.220000 0.060000 0.000000 
 0.240000 0.060000 0.000000 
 0.260000 0.060000 0.000000 
 0.280000 0.060000 0.000000 
 0.300000 0.060000 0.000000 
 0.320000 0.060000 0.000000 
 0.340000 0.060000 0.000000 
 0.360000 0.060000 0.000000 
 0.380000 0.060000 0.000000 
 0.400000 0.060000 0.000000 
 0.420000 0.060000 0.000000 
 0.440000 0.060000 0.000000 
 0.460000 0.060000 0.000000 
 0.480000 0.060000 0.000000 
 0.500000 0.060000 0.000000 
 0.520000 0.060000 0.000000 
 0.540000 0.060000 0.000000 
 0.560000 0.060000 0.000000 
 0.580000 0.060000 0.000000 
 0.600000 0.060000 0.000000 
 0.620000 0.060000 0.000000 
 0.640000 0.060000 0.000000 
 0.660000 0.060000 0.000000 
 0.680000 0.060000 0.000000 
 0.700000 0.060000 0.000000 
 0.720000 0.060000 0.000000 
 0.740000 0.060000 0.000000 
 0.760000 0.060000 0.000000 
 0.780000 0.060000 0.000000 
 0.800000 0.060000 0.000000 
 0.820000 0.060000 0.000000 
 0.840000 0.060000 0.000000 
 0.860000 0.060000 0.000000 
 0.880000 0.060000 0.000000 
 0.900000 0.060000 0.000000 
 0.920000 0.060000 0.000000 
 0.940000 0.060000 0.000000 
 0.960000 0.060000 0.000000 
 0.980000 0.060000 0.000000 
 1.000000 0.060000 0.000000 
 0.000000 0.080000 0.000000 
 0.020000 0.080000 0.000000 
 0.040000 0.080000 0.000000 
 0.060000 0.080000 0.000000 
 0.080000 0.080000 0.000000 
 0.100000 0.080000 0.000000 
 0.120000 0.080000 0.000000 
 0.140000 0.080000 0.000000 
 0.160000 0.080000 0.000000 
 0.180000 0.080000 0.000000 
 0.200000 0.080000 0.000000 
 0.220000 0.080000 0.000000 
 0.240000 0.080000 0.000000 
 0.260000 0.080000 0.000000 
 0.280000 0.080000 0.000000 
 0.300000 0.080000 0.000000 
 0.320000 0.080000 0.000000 
 0.340000 0.080000 0.000000 
 0.360000 0.080000 0.000000 
 0.380000 0.080000 0.000000 
 0.400000 0.080000 0.000000 
 0.420000 0.080000 0.000000 
 0.440000 0.080000 0.000000 
 0.460000 0.080000 0.000000 
 0.480000 0.080000 0.000000 
 0.500000 0.080000 0.000000 
 0.520000 0.080000 0.000000 
 0.540000 0.080000 0.000000 
 0.560000 0.080000 0.000000 
 0.580000 0.080000 0.000000 
 0.600000 0.080000 0.000000 
 0.620000 0.080000 0.000000 
 0.640000 0.080000 0.000000 
 0.660000 0.080000 0.000000 
 0.680000 0.080000 0.000000 
 0.700000 0.080000 0.000000 
 0.720000 0.080000 0.000000 
 0.740000 0.080000 0.000000 
 0.760000 0.080000 0.000000 
 0.780000 0.080000 0.000000 
 0.800000 0.080000 0.000000 
 0.820000 0.080000 0.000000 
 0.840000 0.080000 0.000000 
 0.860000 0.080000 0.000000 
 0.880000 0.080000 0.000000 
 0.900000 0.080000 0.000000 
 0.920000 0.080000 0.000000 
 0.940000 0.080000 0.000000 
 0.960000 0.080000 0.000000 
 0.980000 0.080000 0.000000 
 1.000000 0.080000 0.000000 
 0.000000 0.100000 0.000000 
 0.020000 0.100000 0.000000 
 0.040000 0.100000 0.000000 
 0.060000 0.100000 0.000000 
 0.080000 0.100000 0.000000 
 0.100000 0.100000 0.000000 
 0.120000 0.100000 0.000000 
 0.140000 0.100000 0.000000 
 0.160000 0.100000 0.000000 
 0.180000 0.100000 0.000000 
 0.200000 0.100000 0.000000 
 0.220000 0.100000 0.000000 
 0.240000 0.100000 0.000000 
 0.260000 0.100000 0.000000 
 0.280000 0.100000 0.000000 
 0.300000 0.100000 0.000000 
 0.320000 0.100000 0.000000 
 0.340000 0.100000 0.000000 
 0.360000 0.100000 0.000000 
 0.380000 0.100000 0.000000 
 0.400000 0.100000 0.000000 
 0.420000 0.100000 0.000000 
 0.440000 0.100000 0.000000 
 0.460000 0.100000 0.000000 
 0.480000 0.100000 0.000000 
 0.500000 0.100000 0.000000 
 0.520000 0.100000 0.000000 
 0.540000 0.100000 0.000000 
 0.560000 0.100000 0.000000 
 0.580000 0.100000 0.000000 
 0.600000 0.100000 0.000000 
 0.620000 0.100000 0.000000 
 0.640000 0.100000 0.000000 
 0.660000 0.100000 0.000000 
 0.680000 0.100000 0.000000 
 0.700000 0.100000 0.000000 
 0.720000 0.100000 0.000000 
 0.740000 0.100000 0.000000 
 0.760000 0.100000 0.000000 
 0.780000 0.100000 0.000000 
 0.800000 0.100000 0.000000 
 0.820000 0.100000 0.000000 
 0.840000 0.100000 0.000000 
 0.860000 0.100000 0.000000 
 0.880000 0.100000 0.000000 
 0.900000 0.100000 0.000000 
 0.920000 0.100000 0.000000 
 0.940000 0.100000 0.000000 
 0.960000 0.100000 0.000000 
 0.980000 0.100000 0.000000 
 1.000000 0.100000 0.000000 
 0.000000 0.120000 0.000000 
 0.020000 0.120000 0.000000 
 0.040000 0.120000 0.000000 
 0.060000 0.120000 0.000000 
 0.080000 0.120000 0.000000 
 0.100000 0.120000 0.000000 
 0.120000 0.120000 0.000000 
 0.140000 0.120000 0.000000 
 0.160000 0.120000 0.000000 
 0.180000 0.120000 0.000000 
 0.200000 0.120000 0.000000 
 0.220000 0.120000 0.000000 
 0.240000 0.120000 0.000000 
 0.260000 0.120000 0.000000 
 0.280000 0.120000 0.000000 
 0.300000 0.120000 0.000000 
 0.320000 0.120000 0.000000 
 0.340000 0.120000 0.000000 
 0.360000 0.120000 0.000000 
 0.380000 0.120000 0.000000 
 0.400000 0.120000 0.000000 
 0.420000 0.120000 0.000000 
 0.440000 0.120000 0.000000 
 0.460000 0.120000 0.000000 
 0.480000 0.120000 0.000000 
 0.500000 0.120000 0.000000 
 0.520000 0.120000 0.000000 
 0.540000 0.120000 0.000000 
 0.560000 0.120000 0.000000 
 0.580000 0.120000 0.000000 
 0.600000 0.120000 0.000000 
[...]
<PointData  Scalars="U"> 
<DataArray  type="Float64"  Name="U"  format="ascii"> 
 0.000000e+00
 0.000000e+00
 0.000000e+00
 0.000000e+00
 0.000000e+00
 0.000000e+00
 0.000000e+00
 0.000000e+00
 0.000000e+00
 0.000000e+00
 0.000000e+00
 0.000000e+00
 0.000000e+00
 0.000000e+00
 0.000000e+00
 0.000000e+00
 0.000000e+00
 0.000000e+00
 0.000000e+00
 0.000000e+00
 0.000000e+00
 0.000000e+00
 0.000000e+00
 0.000000e+00
 0.000000e+00
 0.000000e+00
 0.000000e+00
 0.000000e+00
 0.000000e+00
 0.000000e+00
 0.000000e+00
 0.000000e+00
 0.000000e+00
 0.000000e+00
 0.000000e+00
 0.000000e+00
 0.000000e+00
 0.000000e+00
 0.000000e+00
 0.000000e+00
 0.000000e+00
 0.000000e+00
 0.000000e+00
 0.000000e+00
 0.000000e+00
 0.000000e+00
 0.000000e+00
 0.000000e+00
 0.000000e+00
 0.000000e+00
 0.000000e+00
 0.000000e+00
 1.172856e-05
 2.137183e-05
 1.677313e-05
 1.078532e-05
 1.067248e-05
 7.014696e-06
 2.829116e-06
 9.804907e-06
 1.591891e-05
 1.348524e-05
 1.626670e-05
 1.265676e-05
 1.102674e-05
 9.969969e-06
 1.825875e-05
 2.374492e-05
 2.712580e-05
 2.804313e-05
 3.111184e-05
 3.207730e-05
 2.150673e-05
 2.173224e-05
 2.195558e-05
 1.409278e-06
 -1.845966e-05
 -1.558141e-05
 -6.401310e-06
 -2.528552e-06
 -4.987769e-06
 -1.526429e-05
 -2.045815e-05
 -1.539692e-05
 -3.443948e-07
 3.126060e-06
 2.091846e-07
 5.082461e-07
 1.550929e-05
 1.532375e-05
 1.002738e-05
 1.287704e-05
 1.344237e-05
 1.720343e-05
 1.868060e-05
 1.710420e-05
 7.997790e-06
 2.014564e-06
 2.355166e-06
 2.105110e-06
 8.298009e-05
 0.000000e+00
 0.000000e+00
 4.443198e-06
 1.214447e-05
 1.290866e-05
 1.138830e-05
 9.962000e-06
 8.513296e-06
 8.105668e-06
 1.003461e-05
 1.202861e-05
 1.290186e-05
 1.315969e-05
 1.272537e-05
 1.240032e-05
 1.353449e-05
 1.655246e-05
 1.973782e-05
 2.202312e-05
 2.336696e-05
 2.408767e-05
 2.287070e-05
 1.966797e-05
 1.668729e-05
 1.187835e-05
 3.178220e-06
 -4.555999e-06
 -6.625643e-06
 -5.292387e-06
 -4.457833e-06
 -6.057668e-06
 -9.062178e-06
 -1.036238e-05
 -7.673183e-06
 -2.839751e-06
 3.943974e-07
 1.824193e-06
 4.455299e-06
 8.478961e-06
 1.015340e-05
 1.023566e-05
 1.081517e-05
 1.183209e-05
 1.288203e-05
 1.304994e-05
 1.129967e-05
 7.955103e-06
 5.360668e-06
 5.315009e-06
 9.837243e-06
 1.930550e-06
 0.000000e+00
 0.000000e+00
 7.854779e-06
 1.141423e-05
 1.181464e-05
 1.111968e-05
 1.023654e-05
 9.577816e-06
 9.553715e-06
 1.032634e-05
 1.132835e-05
 1.205409e-05
 1.244601e-05
 1.263799e-05
 1.301558e-05
 1.403297e-05
 1.573262e-05
 1.757989e-05
 1.903776e-05
 1.985435e-05
 1.986401e-05
 1.875801e-05
 1.656755e-05
 1.359613e-05
 9.550492e-06
 4.509677e-06
 5.276986e-08
 -2.373597e-06
 -3.157745e-06
 -3.627400e-06
 -4.585810e-06
 -5.692097e-06
 -5.872786e-06
 -4.462337e-06
 -2.042803e-06
 2.687702e-07
 2.215542e-06
 4.316431e-06
 6.493974e-06
 7.982950e-06
 8.785317e-06
 9.404473e-06
 9.984515e-06
 1.032716e-05
 1.004925e-05
 8.884416e-06
 7.124515e-06
 5.634978e-06
 5.223938e-06
 7.937473e-06
 -3.213356e-05
 0.000000e+00
 0.000000e+00
 1.794366e-05
 1.308011e-05
 1.174631e-05
 1.092444e-05
 1.032084e-05
 9.983507e-06
 1.001957e-05
 1.042530e-05
 1.100502e-05
 1.154906e-05
 1.198734e-05
 1.238747e-05
 1.291479e-05
 1.371991e-05
 1.478140e-05
 1.587329e-05
 1.671480e-05
 1.708855e-05
 1.683224e-05
 1.582498e-05
 1.406332e-05
 1.162626e-05
 8.586568e-06
 5.235191e-06
 2.217924e-06
 7.561029e-08
 -1.221438e-06
 -2.087752e-06
 -2.819937e-06
 -3.320022e-06
 -3.238771e-06
 -2.378011e-06
 -9.387158e-07
 6.888689e-07
 2.305659e-06
 3.912057e-06
 5.412314e-06
 6.596102e-06
 7.416903e-06
 7.981721e-06
 8.337938e-06
 8.404750e-06
 8.041087e-06
 7.188106e-06
 5.996033e-06
 4.759733e-06
 3.558006e-06
 1.405924e-06
 -5.105496e-05
 0.000000e+00
 0.000000e+00
 1.846954e-05
 1.317459e-05
 1.134816e-05
 1.054824e-05
 1.014920e-05
 9.996271e-06
 1.007269e-05
 1.035019e-05
 1.074670e-05
 1.117216e-05
 1.158571e-05
 1.200954e-05
 1.250352e-05
 1.310933e-05
 1.379252e-05
 1.443240e-05
 1.486906e-05
 1.495472e-05
 1.457568e-05
 1.366479e-05
 1.221897e-05
 1.029652e-05
 8.017954e-06
 5.609464e-06
 3.388076e-06
 1.606347e-06
 3.121610e-07
 -6.032152e-07
 -1.235684e-06
 -1.558961e-06
 -1.467106e-06
 -9.103302e-07
 2.309958e-08
 1.164962e-06
 2.378838e-06
 3.581794e-06
 4.687995e-06
 5.604604e-06
 6.287676e-06
 6.742778e-06
 6.968538e-06
 6.926256e-06
 6.562936e-06
 5.863756e-06
 4.884254e-06
 3.711070e-06
 2.361605e-06
 1.371801e-06
 4.172079e-07
 0.000000e+00
 0.000000e+00
 1.379406e-05
 1.082819e-05
 1.010368e-05
 9.839164e-06
 9.750088e-06
 9.775134e-06
 9.912786e-06
 1.015461e-05
 1.046924e-05
 1.081865e-05
 1.118103e-05
 1.155869e-05
 1.196616e-05
 1.240498e-05
 1.284047e-05
 1.319789e-05
 1.338021e-05
 1.329289e-05
 1.286254e-05
 1.204996e-05
 1.085936e-05
 9.342157e-06
 7.599919e-06
 5.785577e-06
 4.077670e-06
 2.619519e-06
 1.471323e-06
 6.237777e-07
 5.573676e-08
 -2.241756e-07
 -1.882888e-07
 1.654936e-07
 7.852658e-07
 1.580911e-06
 2.460169e-06
 3.344584e-06
 4.163836e-06
 4.856961e-06
 5.384085e-06
 5.725255e-06
 5.863871e-06
 5.775664e-06
 5.434664e-06
 4.827147e-06
 3.953575e-06
 2.812350e-06
 1.442024e-06
 1.255811e-06
 -3.493791e-05
 0.000000e+00
 0.000000e+00
 4.750803e-06
 7.345873e-06
 8.489197e-06
 8.986035e-06
 9.244574e-06
 9.438936e-06
 9.643901e-06
 9.884961e-06
 1.016022e-05
 1.045679e-05
 1.076352e-05
 1.107584e-05
 1.139082e-05
 1.169655e-05
 1.196264e-05
 1.213912e-05
 1.216471e-05
 1.197983e-05
 1.153910e-05
 1.082102e-05
 9.834562e-06
 8.622214e-06
 7.259598e-06
 5.849042e-06
 4.501537e-06
 3.309702e-06
 2.328450e-06
 1.577983e-06
 1.063319e-06
 7.899777e-07
 7.620982e-07
 9.682961e-07
 1.372008e-06
 1.916339e-06
 2.537331e-06
 3.173624e-06
 3.769833e-06
 4.279207e-06
 4.666780e-06
 4.908427e-06
 4.985462e-06
 4.880279e-06
 4.576067e-06
 4.055738e-06
 3.288743e-06
 2.190966e-06
 5.218500e-07
 -2.906476e-06
 -1.806222e-05
 0.000000e+00
 0.000000e+00
 -9.975406e-07
 5.284943e-06
 7.438053e-06
 8.337079e-06
 8.788830e-06
 9.084539e-06
 9.334414e-06
 9.579347e-06
 9.830446e-06
 1.008612e-05
 1.034091e-05
 1.058876e-05
 1.082141e-05
 1.102418e-05
 1.117239e-05
 1.123157e-05
 1.116212e-05
 1.092670e-05
 1.049818e-05
 9.866130e-06
 9.041323e-06
 8.057352e-06
 6.969003e-06
 5.846170e-06
 4.762711e-06
 3.782974e-06
 2.952412e-06
 2.297060e-06
 1.829755e-06
 1.555917e-06
 1.473715e-06
 1.569929e-06
 1.817113e-06
 2.175766e-06
 2.600176e-06
 3.044132e-06
 3.464772e-06
 3.825223e-06
 4.096264e-06
 4.256236e-06
 4.289392e-06
 4.184207e-06
 3.932060e-06
 3.523349e-06
 2.933235e-06
 2.077960e-06
 6.868692e-07
 -2.195986e-06
 1.693500e-05
 0.000000e+00
 0.000000e+00
 2.635202e-06
 6.186191e-06
 7.433349e-06
 8.064690e-06
 8.464034e-06
 8.766043e-06
 9.025388e-06
 9.265634e-06
 9.495602e-06
 9.716372e-06
 9.924965e-06
 1.011578e-05
 1.028012e-05
 1.040461e-05
 1.047022e-05
 1.045304e-05
 1.032722e-05
 1.006954e-05
 9.664374e-06
 9.107898e-06
 8.410903e-06
 7.599545e-06
 6.713639e-06
 5.802218e-06
 4.916729e-06
 4.103621e-06
 3.398987e-06
 2.827046e-06
 2.401656e-06
 2.128277e-06
 2.004374e-06
 2.018471e-06
 2.149729e-06
 2.369419e-06
 2.644064e-06
 2.938972e-06
 3.221231e-06
 3.461961e-06
 3.637799e-06
 3.731535e-06
 3.732198e-06
 3.635185e-06
 3.442753e-06
 3.164496e-06
 2.817296e-06
 2.424113e-06
 1.990573e-06
 -4.880568e-08
 1.796371e-05
 0.000000e+00
 0.000000e+00
 1.202596e-05
 8.560664e-06
 7.934054e-06
 7.992332e-06
 8.225687e-06
 8.485719e-06
 8.733203e-06
 8.960983e-06
 9.169339e-06
 9.358423e-06
 9.526302e-06
 9.668509e-06
 9.777659e-06
 9.843019e-06
 9.850491e-06
 9.783576e-06
 9.625451e-06
 9.361886e-06
 8.984373e-06
 8.492813e-06
 7.897202e-06
 7.217894e-06
 6.484217e-06
 5.731436e-06
 4.996523e-06
 4.313717e-06
 3.711135e-06
 3.209140e-06
 2.820257e-06
 2.549657e-06
 2.395408e-06
 2.348487e-06
 2.393113e-06
 2.507932e-06
 2.668007e-06
 2.847155e-06
 3.020161e-06
 3.164637e-06
 3.262474e-06
 3.300954e-06
 3.273821e-06
 3.182826e-06
 3.040498e-06
 2.875728e-06
 2.747616e-06
 2.791039e-06
 3.407074e-06
 7.094781e-06
 3.691597e-05
 0.000000e+00
 0.000000e+00
 1.491421e-05
 9.059331e-06
 7.908374e-06
 7.792003e-06
 7.975137e-06
 8.222129e-06
 8.461575e-06
 8.675602e-06
 8.861971e-06
 9.021261e-06
 9.152830e-06
 9.253718e-06
 9.318405e-06
 9.338884e-06
 9.305071e-06
 9.205749e-06
 9.030093e-06
 8.769609e-06
 8.420139e-06
 7.983555e-06
 7.468741e-06
 6.891637e-06
 6.274189e-06
 5.642303e-06
 5.023131e-06
 4.442253e-06
 3.921373e-06
 3.476905e-06
 3.119404e-06
 2.853491e-06
 2.677962e-06
 2.586003e-06
 2.565699e-06
 2.600985e-06
 2.673050e-06
 2.761965e-06
 2.848343e-06
 2.914851e-06
 2.947570e-06
 2.937289e-06
 2.881038e-06
 2.784351e-06
 2.665104e-06
 2.560289e-06
 2.537819e-06
 2.715890e-06
 3.296322e-06
 5.692749e-06
 -5.022294e-05
 0.000000e+00
 0.000000e+00
 6.915052e-06
 6.888931e-06
 7.056150e-06
 7.359405e-06
 7.683166e-06
 7.973349e-06
 8.217393e-06
 8.418146e-06
 8.581413e-06
 8.711413e-06
 8.809607e-06
 8.874703e-06
 8.902999e-06
 8.888836e-06
 8.825211e-06
 8.704640e-06
 8.520297e-06
 8.267340e-06
 7.944218e-06
 7.553731e-06
 7.103600e-06
 6.606404e-06
 6.078810e-06
 5.540179e-06
 5.010774e-06
 4.509884e-06
 4.054208e-06
 3.656712e-06
 3.325989e-06
 3.065999e-06
 2.876081e-06
 2.751162e-06
 2.682227e-06
 2.657075e-06
 2.661335e-06
 2.679660e-06
 2.696966e-06
 2.699636e-06
 2.676686e-06
 2.620970e-06
 2.530669e-06
 2.411484e-06
 2.280219e-06
 2.170617e-06
 2.140371e-06
 2.262326e-06
 2.472724e-06
 7.912069e-07
 -1.611160e-05
 0.000000e+00
 0.000000e+00
 6.457099e-07
 4.446279e-06
 6.069747e-06
 6.919568e-06
 7.431298e-06
 7.772860e-06
 8.016787e-06
 8.197830e-06
 8.333634e-06
 8.432907e-06
 8.499079e-06
 8.532159e-06
 8.529819e-06
 8.488160e-06
 8.402402e-06
 8.267634e-06
 8.079672e-06
 7.835974e-06
 7.536502e-06
 7.184380e-06
 6.786224e-06
 6.352031e-06
 5.894619e-06
 5.428659e-06
 4.969457e-06
 4.531664e-06
 4.128122e-06
 3.768969e-06
 3.461063e-06
 3.207695e-06
 3.008535e-06
 2.859796e-06
 2.754608e-06
 2.683588e-06
 2.635600e-06
 2.598621e-06
 2.560662e-06
 2.510675e-06
 2.439437e-06
 2.340450e-06
 2.210973e-06
 2.053444e-06
 1.877824e-06
 1.706185e-06
 1.583339e-06
 1.608658e-06
 2.078472e-06
 6.557209e-06
 1.227937e-06
 0.000000e+00
 0.000000e+00
 -7.756695e-07
 3.682623e-06
 5.748663e-06
 6.781334e-06
 7.336238e-06
 7.664541e-06
 7.876501e-06
 8.021372e-06
 8.121548e-06
 8.186951e-06
 8.221263e-06
 8.224774e-06
 8.195809e-06
 8.131560e-06
 8.028722e-06
 7.884096e-06
 7.695204e-06
 7.460919e-06
 7.182029e-06
 6.861642e-06
 6.505367e-06
 6.121195e-06
 5.719082e-06
 5.310267e-06
 4.906420e-06
 4.518735e-06
 4.157093e-06
 3.829376e-06
 3.540991e-06
 3.294601e-06
 3.090047e-06
 2.924458e-06
 2.792523e-06
 2.686920e-06
 2.598861e-06
 2.518721e-06
 2.436692e-06
 2.343416e-06
 2.230553e-06
 2.091260e-06
 1.920530e-06
 1.715376e-06
 1.474827e-06
 1.200313e-06
 8.999091e-07
 6.130319e-07
 5.114711e-07
 1.635960e-06
 -8.699605e-05
 0.000000e+00
 0.000000e+00
 1.534496e-06
 4.922352e-06
 6.369337e-06
 7.072910e-06
 7.446790e-06
 7.663562e-06
 7.799310e-06
 7.887726e-06
 7.943279e-06
 7.971556e-06
 7.973932e-06
 7.949682e-06
 7.897000e-06
 7.813563e-06
 7.696953e-06
 7.545051e-06
 7.356452e-06
 7.130865e-06
 6.869477e-06
 6.575197e-06
 6.252740e-06
 5.908518e-06
 5.550321e-06
 5.186827e-06
 4.826998e-06
 4.479425e-06
 4.151719e-06
 3.849987e-06
 3.578450e-06
 3.339214e-06
 3.132183e-06
 2.955125e-06
 2.803861e-06
 2.672569e-06
 2.554174e-06
 2.440786e-06
 2.324140e-06
 2.195995e-06
 2.048413e-06
 1.873847e-06
 1.664849e-06
 1.413038e-06
 1.106510e-06
 7.237810e-07
 2.197734e-07
 -5.062706e-07
 -1.676016e-06
 -2.202636e-06
 -1.872448e-05
 0.000000e+00
 0.000000e+00
 7.757414e-06
 7.724236e-06
 7.640545e-06
 7.660656e-06
 7.700289e-06
 7.737271e-06
 7.766562e-06
 7.785607e-06
 7.791644e-06
 7.781742e-06
 7.753059e-06
 7.702941e-06
 7.628930e-06
 7.528789e-06
 7.400593e-06
 7.242892e-06
 7.054935e-06
 6.836903e-06
 6.590124e-06
 6.317216e-06
 6.022114e-06
 5.709969e-06
 5.386904e-06
 5.059660e-06
 4.735151e-06
 4.419995e-06
 4.120053e-06
 3.840045e-06
 3.583239e-06
 3.351262e-06
 3.144020e-06
 2.959723e-06
 2.795016e-06
 2.645184e-06
 2.504419e-06
 2.366114e-06
 2.223146e-06
 2.068085e-06
 1.893291e-06
 1.690750e-06
 1.451479e-06
 1.164016e-06
 8.109183e-07
 3.602406e-07
 -2.573829e-07
 -1.218263e-06
 -3.033518e-06
 -7.793895e-06
 -5.496756e-05
 0.000000e+00
 0.000000e+00
 1.553084e-05
 1.023430e-05
 8.831606e-06
 8.238001e-06
 7.958405e-06
 7.818821e-06
 7.743978e-06
 7.696470e-06
 7.655970e-06
 7.610741e-06
 7.553652e-06
 7.480127e-06
 7.387039e-06
 7.272147e-06
 7.133852e-06
 6.971147e-06
 6.783688e-06
 6.571905e-06
 6.337124e-06
 6.081636e-06
 5.808698e-06
 5.522443e-06
 5.227697e-06
 4.929708e-06
 4.633826e-06
 4.345155e-06
 4.068210e-06
 3.806625e-06
 3.562908e-06
 3.338290e-06
 3.132647e-06
 2.944504e-06
 2.771114e-06
 2.608599e-06
 2.452118e-06
 2.296061e-06
 2.134213e-06
 1.959859e-06
 1.765775e-06
 1.544020e-06
 1.285422e-06
 9.785326e-07
 6.076710e-07
 1.492628e-07
 -4.354585e-07
 -1.219601e-06
 -2.406465e-06
 -6.863292e-06
 5.019707e-05
 0.000000e+00
 0.000000e+00
 1.336386e-05
 1.080365e-05
 9.362811e-06
 8.540951e-06
 8.089917e-06
 7.841104e-06
 7.696626e-06
 7.601651e-06
 7.525747e-06
 7.451999e-06
 7.370910e-06
 7.277015e-06
 7.167054e-06
 7.039005e-06
 6.891629e-06
 6.724286e-06
 6.536913e-06
 6.330069e-06
 6.104995e-06
 5.863654e-06
 5.608715e-06
 5.343482e-06
 5.071750e-06
 4.797607e-06
 4.525191e-06
 4.258438e-06
 4.000820e-06
 3.755120e-06
 3.523249e-06
 3.306116e-06
 3.103560e-06
 2.914340e-06
 2.736179e-06
 2.565851e-06
 2.399294e-06
 2.231718e-06
 2.057706e-06
 1.871254e-06
 1.665738e-06
 1.433777e-06
 1.166993e-06
 8.557924e-07
 4.896571e-07
 5.988658e-08
 -4.272949e-07
 -8.909685e-07
 -8.692157e-07
 3.883008e-06
 3.441891e-05
 0.000000e+00
 0.000000e+00
 1.197075e-05
 1.048854e-05
 9.275138e-06
 8.490002e-06
 8.030940e-06
 7.765919e-06
 7.603622e-06
 7.489889e-06
 7.394529e-06
 7.301233e-06
 7.201317e-06
 7.090164e-06
 6.965278e-06
 6.825287e-06
 6.669468e-06
 6.497559e-06
 6.309725e-06
 6.106584e-06
 5.889253e-06
 5.659376e-06
 5.419110e-06
 5.171070e-06
 4.918225e-06
 4.663743e-06
 4.410817e-06
 4.162471e-06
 3.921363e-06
 3.689617e-06
 3.468672e-06
 3.259185e-06
 3.060964e-06
 2.872957e-06
 2.693269e-06
 2.519214e-06
 2.347385e-06
 2.173716e-06
 1.993538e-06
 1.801589e-06
 1.591983e-06
 1.358145e-06
 1.092776e-06
 7.880870e-07
 4.369029e-07
 3.624777e-08
 -4.028747e-07
 -8.341470e-07
 -1.173536e-06
 -2.782092e-06
 -5.290750e-05
 0.000000e+00
 0.000000e+00
 1.251167e-05
 9.821706e-06
 8.714075e-06
 8.114760e-06
 7.786086e-06
 7.594289e-06
 7.465928e-06
 7.361954e-06
 7.262448e-06
 7.157718e-06
 7.043291e-06
 6.917219e-06
 6.778707e-06
 6.627470e-06
 6.463465e-06
 6.286832e-06
 6.097927e-06
 5.897377e-06
 5.686146e-06
 5.465565e-06
 5.237338e-06
 5.003500e-06
 4.766340e-06
 4.528293e-06
 4.291802e-06
 4.059174e-06
 3.832431e-06
 3.613180e-06
 3.402496e-06
 3.200842e-06
 3.008014e-06
 2.823124e-06
 2.644605e-06
 2.470243e-06
 2.297214e-06
 2.122126e-06
 1.941038e-06
 1.749464e-06
 1.542334e-06
 1.313940e-06
 1.057924e-06
 7.674211e-07
 4.355957e-07
 5.660759e-08
 -3.750919e-07
 -8.818751e-07
 -1.614319e-06
 -3.681790e-06
 5.127538e-05
 0.000000e+00
 0.000000e+00
 1.086499e-05
 8.281789e-06
 7.672299e-06
 7.485568e-06
 7.413897e-06
 7.364680e-06
 7.306868e-06
 7.231150e-06
 7.136398e-06
 7.024288e-06
 6.897083e-06
 6.756786e-06
 6.604899e-06
 6.442450e-06
 6.270124e-06
 6.088425e-06
 5.897830e-06
 5.698915e-06
 5.492450e-06
 5.279456e-06
 5.061220e-06
 4.839275e-06
 4.615345e-06
 4.391265e-06
 4.168878e-06
 3.949921e-06
 3.735918e-06
 3.528072e-06
 3.327178e-06
 3.133557e-06
 2.947013e-06
 2.766811e-06
 2.591684e-06
 2.419844e-06
 2.249014e-06
 2.076444e-06
 1.898929e-06
 1.712791e-06
 1.513835e-06
 1.297262e-06
 1.057547e-06
 7.882527e-07
 4.817594e-07
 1.285615e-07
 -2.848877e-07
 -7.803814e-07
 -1.360446e-06
 -1.999175e-06
 -1.046826e-06
 0.000000e+00
 0.000000e+00
 4.892567e-06
 5.567270e-06
 6.312412e-06
 6.766870e-06
 7.027484e-06
 7.146751e-06
 7.166888e-06
 7.119770e-06
 7.027771e-06
 6.905894e-06
 6.763877e-06
 6.607862e-06
 6.441595e-06
 6.267276e-06
 6.086151e-06
 5.898931e-06
 5.706086e-06
 5.508045e-06
 5.305330e-06
 5.098632e-06
 4.888844e-06
 4.677053e-06
 4.464501e-06
 4.252528e-06
 4.042486e-06
 3.835661e-06
 3.633180e-06
 3.435933e-06
 3.244500e-06
 3.059106e-06
 2.879579e-06
 2.705338e-06
 2.535392e-06
 2.368358e-06
 2.202476e-06
 2.035630e-06
 1.865358e-06
 1.688836e-06
 1.502831e-06
 1.303580e-06
 1.086557e-06
 8.460040e-07
 5.740535e-07
 2.593021e-07
 -1.144524e-07
 -5.663324e-07
 -1.129599e-06
 -3.318356e-06
 3.411470e-05
 0.000000e+00
 0.000000e+00
 -1.341442e-06
 3.372949e-06
 5.210689e-06
 6.239427e-06
 6.780949e-06
 7.026138e-06
 7.092549e-06
 7.052046e-06
 6.948161e-06
 6.807052e-06
 6.644280e-06
 6.468939e-06
 6.286190e-06
 6.098823e-06
 5.908235e-06
 5.715058e-06
 5.519555e-06
 5.321879e-06
 5.122226e-06
 4.920930e-06
 4.718498e-06
 4.515607e-06
 4.313083e-06
 4.111847e-06
 3.912852e-06
 3.717017e-06
 3.525157e-06
 3.337917e-06
 3.155718e-06
 2.978720e-06
 2.806791e-06
 2.639502e-06
 2.476127e-06
 2.315662e-06
 2.156845e-06
 1.998184e-06
 1.837969e-06
 1.674279e-06
 1.504951e-06
 1.327476e-06
 1.138764e-06
 9.345720e-07
 7.082690e-07
 4.483460e-07
 1.348663e-07
 -2.573676e-07
 -6.889796e-07
 -8.185947e-07
 3.439313e-05
 0.000000e+00
 0.000000e+00
 3.023142e-07
 2.499246e-06
 4.875295e-06
 6.180070e-06
 6.819034e-06
 7.076948e-06
 7.120574e-06
 7.044922e-06
 6.904077e-06
 6.728840e-06
 6.536622e-06
 6.337045e-06
 6.135181e-06
 5.933467e-06
 5.732851e-06
 5.533495e-06
 5.335208e-06
 5.137712e-06
 4.940796e-06
 4.744396e-06
 4.548634e-06
 4.353811e-06
 4.160383e-06
 3.968918e-06
 3.780039e-06
 3.594371e-06
 3.412477e-06
 3.234815e-06
 3.061687e-06
 2.893214e-06
 2.729314e-06
 2.569705e-06
 2.413908e-06
 2.261278e-06
 2.111024e-06
 1.962257e-06
 1.814015e-06
 1.665308e-06
 1.515127e-06
 1.362437e-06
 1.206085e-06
 1.044487e-06
 8.746480e-07
 6.891096e-07
 4.664830e-07
 1.432115e-07
 -4.608468e-07
 -2.705817e-06
 1.705060e-05
 0.000000e+00
 0.000000e+00
 -4.385958e-06
 3.085949e-06
 5.622265e-06
 6.758487e-06
 7.218530e-06
 7.330632e-06
 7.261420e-06
 7.099315e-06
 6.892265e-06
 6.666374e-06
 6.435600e-06
 6.207016e-06
 5.983786e-06
 5.766891e-06
 5.556153e-06
 5.350849e-06
 5.150082e-06
 4.952993e-06
 4.758880e-06
 4.567255e-06
 4.377857e-06
 4.190638e-06
 4.005731e-06
 3.823403e-06
 3.644007e-06
 3.467930e-06
 3.295540e-06
 3.127148e-06
 2.962968e-06
 2.803099e-06
 2.647514e-06
 2.496065e-06
 2.348501e-06
 2.204499e-06
 2.063707e-06
 1.925797e-06
 1.790526e-06
 1.657808e-06
 1.527797e-06
 1.401003e-06
 1.278465e-06
 1.162045e-06
 1.054846e-06
 9.611472e-07
 8.817133e-07
 7.819309e-07
 4.158328e-07
 -3.413229e-06
 5.233196e-05
 0.000000e+00
 0.000000e+00
 3.895099e-06
 6.481480e-06
 7.611484e-06
 7.959639e-06
 7.941918e-06
 7.753660e-06
 7.488886e-06
 7.195239e-06
 6.897381e-06
 6.607704e-06
 6.331768e-06
 6.071288e-06
 5.825874e-06
 5.594074e-06
 5.373995e-06
 5.163677e-06
 4.961307e-06
 4.765334e-06
 4.574515e-06
 4.387923e-06
 4.204932e-06
 4.025177e-06
 3.848513e-06
 3.674960e-06
 3.504653e-06
 3.337791e-06
 3.174590e-06
 3.015249e-06
 2.859917e-06
 2.708680e-06
 2.561561e-06
 2.418529e-06
 2.279527e-06
 2.144514e-06
 2.013522e-06
 1.886724e-06
 1.764524e-06
 1.647658e-06
 1.537336e-06
 1.435446e-06
 1.344935e-06
 1.270652e-06
 1.221434e-06
 1.215576e-06
 1.295397e-06
 1.566536e-06
 2.308409e-06
 3.281004e-06
 7.121199e-05
 0.000000e+00
 0.000000e+00
 1.334623e-05
 1.138234e-05
 1.031426e-05
 9.492331e-06
 8.820836e-06
 8.246244e-06
 7.741695e-06
 7.293461e-06
 6.893238e-06
 6.534685e-06
 6.212148e-06
 5.920326e-06
 5.654283e-06
 5.409530e-06
 5.182103e-06
 4.968600e-06
 4.766188e-06
 4.572576e-06
 4.385972e-06
 4.205035e-06
 4.028806e-06
 3.856654e-06
 3.688204e-06
 3.523282e-06
 3.361857e-06
 3.203987e-06
 3.049773e-06
 2.899330e-06
 2.752758e-06
 2.610135e-06
 2.471517e-06
 2.336965e-06
 2.206575e-06
 2.080531e-06
 1.959179e-06
 1.843109e-06
 1.733265e-06
 1.631075e-06