<VTKFile type="UnstructuredGrid"  version="0.1"   >
<UnstructuredGrid>  
<Piece  NumberOfPoints="     2601"  NumberOfCells="     5000">  
<Points>  
<DataArray  type="Float64"  NumberOfComponents="3"  format="ascii">  
 0.000000 0.000000 0.000000 
 0.020000 0.000000 0.000000 
 0.040000 0.000000 0.000000 
 0.060000 0.000000 0.000000 
 0.080000 0.000000 0.000000 
 0.100000 0.000000 0.000000 
 0.120000 0.000000 0.000000 
 0.140000 0.000000 0.000000 
 0.160000 0.000000 0.000000 
 0.180000 0.000000 0.000000 
 0.200000 0.000000 0.000000 
 0.220000 0.000000 0.000000 
 0.240000 0.000000 0.000000 
 0.260000 0.000000 0.000000 
 0.280000 0.000000 0.000000 
 0.300000 0.000000 0.000000 
 0.320000 0.000000 0.000000 
 0.340000 0.000000 0.000000 
 0.360000 0.000000 0.000000 
 0.380000 0.000000 0.000000 
 0.400000 0.000000 0.000000 
 0.420000 0.000000 0.000000 
 0.440000 0.000000 0.000000 
 0.460000 0.000000 0.000000 
 0.480000 0.000000 0.000000 
 0.500000 0.000000 0.000000 
 0.520000 0.000000 0.000000 
 0.540000 0.000000 0.000000 
 0.560000 0.000000 0.000000 
 0.580000 0.000000 0.000000 
 0.600000 0.000000 0.000000 
 0.620000 0.000000 0.000000 
 0.640000 0.000000 0.000000 
 0.660000 0.000000 0.000000 
 0.680000 0.000000 0.000000 
 0.700000 0.000000 0.000000 
 0.720000 0.000000 0.000000 
 0.740000 0.000000 0.000000 
 0.760000 0.000000 0.000000 
 0.780000 0.000000 0.000000 
 0.800000 0.000000 0.000000 
 0.820000 0.000000 0.000000 
 0.840000 0.000000 0.000000 
 0.860000 0.000000 0.000000 
 0.880000 0.000000 0.000000 
 0.900000 0.000000 0.000000 
 0.920000 0.000000 0.000000 
 0.940000 0.000000 0.000000 
 0.960000 0.000000 0.000000 
 0.980000 0.000000 0.000000 
 1.000000 0.000000 0.000000 
 0.000000 0.020000 0.000000 
 0.020000 0.020000 0.000000 
 0.040000 0.020000 0.000000 
 0.060000 0.020000 0.000000 
 0.080000 0.020000 0.000000 
 0.100000 0.020000 0.000000 
 0.120000 0.020000 0.000000 
 0.140000 0.020000 0.000000 
 0.160000 0.020000 0.000000 
 0.180000 0.020000 0.000000 
 0.200000 0.020000 0.000000 
 0.220000 0.020000 0.000000 
 0.240000 0.020000 0.000000 
 0.260000 0.020000 0.000000 
 0.280000 0.020000 0.000000 
 0.300000 0.020000 0.000000 
 0.320000 0.020000 0.000000 
 0.340000 0.020000 0.000000 
 0.360000 0.020000 0.000000 
 0.380000 0.020000 0.000000 
 0.400000 0.020000 0.000000 
 0.420000 0.020000 0.000000 
 0.440000 0.020000 0.000000 
 0.460000 0.020000 0.000000 
 0.480000 0.020000 0.000000 
 0.500000 0.020000 0.000000 
 0.520000 0.020000 0.000000 
 0.540000 0.020000 0.000000 
 0.560000 0.020000 0.000000 
 0.580000 0.020000 0.000000 
 0.600000 0.020000 0.000000 
 0.620000 0.020000 0.000000 
 0.640000 0.020000 0.000000 
 0.660000 0.020000 0.000000 
 0.680000 0.020000 0.000000 
 0.700000 0.020000 0.000000 
 0.720000 0.020000 0.000000 
 0.740000 0.020000 0.000000 
 0.760000 0.020000 0.000000 
 0.780000 0.020000 0.000000 
 0.800000 0.020000 0.000000 
 0.820000 0.020000 0.000000 
 0.840000 0.020000 0.000000 
 0.860000 0.020000 0.000000 
 0.880000 0.020000 0.000000 
 0.900000 0.020000 0.000000 
 0.920000 0.020000 0.000000 
 0.940000 0.020000 0.000000 
 0.960000 0.020000 0.000000 
 0.980000 0.020000 0.000000 
 1.000000 0.020000 0.000000 
 0.000000 0.040000 0.000000 
 0.020000 0.040000 0.000000 
 0.040000 0.040000 0.000000 
 0.060000 0.040000 0.000000 
 0.080000 0.040000 0.000000 
 0.100000 0.040000 0.000000 
 0.120000 0.040000 0.000000 
 0.140000 0.040000 0.000000 
 0.160000 0.040000 0.000000 
 0.180000 0.040000 0.000000 
 0.200000 0.040000 0.000000 
 0.220000 0.040000 0.000000 
 0.240000 0.040000 0.000000 
 0.260000 0.040000 0.000000 
 0.280000 0.040000 0.000000 
 0.300000 0.040000 0.000000 
 0.320000 0.040000 0.000000 
 0.340000 0.040000 0.000000 
 0.360000 0.040000 0.000000 
 0.380000 0.040000 0.000000 
 0.400000 0.040000 0.000000 
 0.420000 0.040000 0.000000 
 0.440000 0.040000 0.000000 
 0.460000 0.040000 0.000000 
 0.480000 0.040000 0.000000 
 0.500000 0.040000 0.000000 
 0.520000 0.040000 0.000000 
 0.540000 0.040000 0.000000 
 0.560000 0.040000 0.000000 
 0.580000 0.040000 0.000000 
 0.600000 0.040000 0.000000 
 0.620000 0.040000 0.000000 
 0.640000 0.040000 0.000000 
 0.660000 0.040000 0.000000 
 0.680000 0.040000 0.000000 
 0.700000 0.040000 0.000000 
 0.720000 0.040000 0.000000 
 0.740000 0.040000 0.000000 
 0.760000 0.040000 0.000000 
 0.780000 0.040000 0.000000 
 0.800000 0.040000 0.000000 
 0.820000 0.040000 0.000000 
 0.840000 0.040000 0.000000 
 0.860000 0.040000 0.000000 
 0.880000 0.040000 0.000000 
 0.900000 0.040000 0.000000 
 0.920000 0.040000 0.000000 
 0.940000 0.040000 0.000000 
 0.960000 0.040000 0.000000 
 0.980000 0.040000 0.000000 
 1.000000 0.040000 0.000000 
 0.000000 0.060000 0.000000 
 0.020000 0.060000 0.000000 
 0.040000 0.060000 0.000000 
 0.060000 0.060000 0.000000 
 0.080000 0.060000 0.000000 
 0.100000 0.060000 0.000000 
 0.120000 0.060000 0.000000 
 0.140000 0.060000 0.000000 
 0.160000 0.060000 0.000000 
 0.180000 0.060000 0.000000 
 0.200000 0.060000 0.000000 
 0.220000 0.060000 0.000000 
 0.240000 0.060000 0.000000 
 0.260000 0.060000 0.000000 
 0.280000 0.060000 0.000000 
 0.300000 0.060000 0.000000 
 0.320000 0.060000 0.000000 
 0.340000 0.060000 0.000000 
 0.360000 0.060000 0.000000 
 0.380000 0.060000 0.000000 
 0.400000 0.060000 0.000000 
 0.420000 0.060000 0.000000 
 0.440000 0.060000 0.000000 
 0.460000 0.060000 0.000000 
 0.480000 0.060000 0.000000 
 0.500000 0.060000 0.000000 
 0.520000 0.060000 0.000000 
 0.540000 0.060000 0.000000 
 0.560000 0.060000 0.000000 
 0.580000 0.060000 0.000000 
 0.600000 0.060000 0.000000 
 0.620000 0.060000 0.000000 
 0.640000 0.060000 0.000000 
 0.660000 0.060000 0.000000 
 0.680000 0.060000 0.000000 
 0.700000 0.060000 0.000000 
 0.720000 0.060000 0.000000 
 0.740000 0.060000 0.000000 
 0.760000 0.060000 0.000000 
 0.780000 0.060000 0.000000 
 0.800000 0.060000 0.000000 
 0.820000 0.060000 0.000000 
 0.840000 0.060000 0.000000 
 0.860000 0.060000 0.000000 
 0.880000 0.060000 0.000000 
 0.900000 0.060000 0.000000 
 0.920000 0.060000 0.000000 
 0.940000 0.060000 0.000000 
 0.960000 0.060000 0.000000 
 0.980000 0.060000 0.000000 
 1.000000 0.060000 0.000000 
 0.000000 0.080000 0.000000 
 0.020000 0.080000 0.000000 
 0.040000 0.080000 0.000000 
 0.060000 0.080000 0.000000 
 0.080000 0.080000 0.000000 
 0.100000 0.080000 0.000000 
 0.120000 0.080000 0.000000 
 0.140000 0.080000 0.000000 
 0.160000 0.080000 0.000000 
 0.180000 0.080000 0.000000 
 0.200000 0.080000 0.000000 
 0.220000 0.080000 0.000000 
 0.240000 0.080000 0.000000 
 0.260000 0.080000 0.000000 
 0.280000 0.080000 0.000000 
 0.300000 0.080000 0.000000 
 0.320000 0.080000 0.000000 
 0.340000 0.080000 0.000000 
 0.360000 0.080000 0.000000 
 0.380000 0.080000 0.000000 
 0.400000 0.080000 0.000000 
 0.420000 0.080000 0.000000 
 0.440000 0.080000 0.000000 
 0.460000 0.080000 0.000000 
 0.480000 0.080000 0.000000 
 0.500000 0.080000 0.000000 
 0.520000 0.080000 0.000000 
 0.540000 0.080000 0.000000 
 0.560000 0.080000 0.000000 
 0.580000 0.080000 0.000000 
 0.600000 0.080000 0.000000 
 0.620000 0.080000 0.000000 
 0.640000 0.080000 0.000000 
 0.660000 0.080000 0.000000 
 0.680000 0.080000 0.000000 
 0.700000 0.080000 0.000000 
 0.720000 0.080000 0.000000 
 0.740000 0.080000 0.000000 
 0.760000 0.080000 0.000000 
 0.780000 0.080000 0.000000 
 0.800000 0.080000 0.000000 
 0.820000 0.080000 0.000000 
 0.840000 0.080000 0.000000 
 0.860000 0.080000 0.000000 
 0.880000 0.080000 0.000000 
 0.900000 0.080000 0.000000 
 0.920000 0.080000 0.000000 
 0.940000 0.080000 0.000000 
 0.960000 0.080000 0.000000 
 0.980000 0.080000 0.000000 
 1.000000 0.080000 0.000000 
 0.000000 0.100000 0.000000 
 0.020000 0.100000 0.000000 
 0.040000 0.100000 0.000000 
 0.060000 0.100000 0.000000 
 0.080000 0.100000 0.000000 
 0.100000 0.100000 0.000000 
 0.120000 0.100000 0.000000 
 0.140000 0.100000 0.000000 
 0.160000 0.100000 0.000000 
 0.180000 0.100000 0.000000 
 0.200000 0.100000 0.000000 
 0.220000 0.100000 0.000000 
 0.240000 0.100000 0.000000 
 0.260000 0.100000 0.000000 
 0.280000 0.100000 0.000000 
 0.300000 0.100000 0.000000 
 0.320000 0.100000 0.000000 
 0.340000 0.100000 0.000000 
 0.360000 0.100000 0.000000 
 0.380000 0.100000 0.000000 
 0.400000 0.100000 0.000000 
 0.420000 0.100000 0.000000 
 0.440000 0.100000 0.000000 
 0.460000 0.100000 0.000000 
 0.480000 0.100000 0.000000 
 0.500000 0.100000 0.000000 
 0.520000 0.100000 0.000000 
 0.540000 0.100000 0.000000 
 0.560000 0.100000 0.000000 
 0.580000 0.100000 0.000000 
 0.600000 0.100000 0.000000 
 0.620000 0.100000 0.000000 
 0.640000 0.100000 0.000000 
 0.660000 0.100000 0.000000 
 0.680000 0.100000 0.000000 
 0.700000 0.100000 0.000000 
 0.720000 0.100000 0.000000 
 0.740000 0.100000 0.000000 
 0.760000 0.100000 0.000000 
 0.780000 0.100000 0.000000 
 0.800000 0.100000 0.000000 
 0.820000 0.100000 0.000000 
 0.840000 0.100000 0.000000 
 0.860000 0.100000 0.000000 
 0.880000 0.100000 0.000000 
 0.900000 0.100000 0.000000 
 0.920000 0.100000 0.000000 
 0.940000 0.100000 0.000000 
 0.960000 0.100000 0.000000 
 0.980000 0.100000 0.000000 
 1.000000 0.100000 0.000000 
 0.000000 0.120000 0.000000 
 0.020000 0.120000 0.000000 
 0.040000 0.120000 0.000000 
 0.060000 0.120000 0.000000 
 0.080000 0.120000 0.000000 
 0.100000 0.120000 0.000000 
 0.120000 0.120000 0.000000 
 0.140000 0.120000 0.000000 
 0.160000 0.120000 0.000000 
 0.180000 0.120000 0.000000 
 0.200000 0.120000 0.000000 
 0.220000 0.120000 0.000000 
 0.240000 0.120000 0.000000 
 0.260000 0.120000 0.000000 
 0.280000 0.120000 0.000000 
 0.300000 0.120000 0.000000 
 0.320000 0.120000 0.000000 
 0.340000 0.120000 0.000000 
 0.360000 0.120000 0.000000 
 0.380000 0.120000 0.000000 
 0.400000 0.120000 0.000000 
 0.420000 0.120000 0.000000 
 0.440000 0.120000 0.000000 
 0.460000 0.120000 0.000000 
 0.480000 0.120000 0.000000 
 0.500000 0.120000 0.000000 
 0.520000 0.120000 0.000000 
 0.540000 0.120000 0.000000 
 0.560000 0.120000 0.000000 
 0.580000 0.120000 0.000000 
 0.600000 0.120000 0.000000 
[...]
<PointData  Scalars="U"> 
<DataArray  type="Float64"  Name="U"  format="ascii"> 
 0.000000e+00
 0.000000e+00
 0.000000e+00
 0.000000e+00
 0.000000e+00
 0.000000e+00
 0.000000e+00
 0.000000e+00
 0.000000e+00
 0.000000e+00
 0.000000e+00
 0.000000e+00
 0.000000e+00
 0.000000e+00
 0.000000e+00
 0.000000e+00
 0.000000e+00
 0.000000e+00
 0.000000e+00
 0.000000e+00
 0.000000e+00
 0.000000e+00
 0.000000e+00
 0.000000e+00
 0.000000e+00
 0.000000e+00
 0.000000e+00
 0.000000e+00
 0.000000e+00
 0.000000e+00
 0.000000e+00
 0.000000e+00
 0.000000e+00
 0.000000e+00
 0.000000e+00
 0.000000e+00
 0.000000e+00
 0.000000e+00
 0.000000e+00
 0.000000e+00
 0.000000e+00
 0.000000e+00
 0.000000e+00
 0.000000e+00
 0.000000e+00
 0.000000e+00
 0.000000e+00
 0.000000e+00
 0.000000e+00
 0.000000e+00
 0.000000e+00
 0.000000e+00
 4.344740e-06
 1.296201e-05
 1.278276e-05
 9.902429e-06
 1.474376e-05
 1.495535e-05
 8.205621e-06
 1.363098e-05
 1.495093e-05
 1.187544e-05
 1.772433e-05
 1.649906e-05
 1.503648e-05
 1.589668e-05
 2.770655e-05
 3.158513e-05
 3.648612e-05
 3.570149e-05
 3.818101e-05
 4.010911e-05
 2.584091e-05
 2.016571e-05
 1.798974e-05
 1.026398e-06
 -1.710914e-05
 -1.449103e-05
 6.145589e-06
 2.179713e-05
 1.788964e-05
 2.998800e-07
 -8.487344e-06
 3.983204e-06
 2.233069e-05
 1.900463e-05
 1.511723e-05
 1.679504e-05
 3.167764e-05
 2.365817e-05
 7.364301e-06
 1.280853e-05
 1.865936e-05
 1.652922e-05
 1.521016e-05
 1.099851e-06
 -1.427206e-05
 -1.767097e-05
 -1.542885e-05
 -7.495749e-06
 5.969548e-05
 0.000000e+00
 0.000000e+00
 6.781772e-06
 1.208634e-05
 1.310308e-05
 1.303204e-05
 1.354459e-05
 1.323368e-05
 1.249672e-05
 1.321320e-05
 1.381057e-05
 1.437078e-05
 1.551406e-05
 1.622824e-05
 1.684421e-05
 1.920816e-05
 2.328463e-05
 2.685712e-05
 2.921877e-05
 3.017707e-05
 3.043427e-05
 2.846361e-05
 2.347251e-05
 1.836531e-05
 1.272461e-05
 4.929228e-06
 -1.269310e-06
 -6.761770e-07
 5.507694e-06
 1.066610e-05
 9.962877e-06
 5.553884e-06
 3.709991e-06
 7.726944e-06
 1.300625e-05
 1.491054e-05
 1.515248e-05
 1.695878e-05
 1.906706e-05
 1.684626e-05
 1.304354e-05
 1.239881e-05
 1.277046e-05
 1.152223e-05
 7.913512e-06
 1.344026e-06
 -5.044992e-06
 -7.820817e-06
 -5.787587e-06
 4.727750e-06
 -1.927157e-05
 0.000000e+00
 0.000000e+00
 1.648008e-05
 1.602879e-05
 1.511658e-05
 1.443091e-05
 1.407375e-05
 1.377008e-05
 1.358362e-05
 1.380027e-05
 1.423623e-05
 1.482027e-05
 1.558939e-05
 1.643551e-05
 1.754327e-05
 1.932171e-05
 2.165460e-05
 2.385006e-05
 2.537407e-05
 2.599456e-05
 2.560391e-05
 2.384442e-05
 2.070515e-05
 1.683108e-05
 1.249463e-05
 8.020023e-06
 4.869126e-06
 4.506229e-06
 6.389862e-06
 8.240043e-06
 8.365979e-06
 7.351387e-06
 7.179527e-06
 8.839960e-06
 1.119172e-05
 1.282430e-05
 1.378724e-05
 1.466378e-05
 1.504673e-05
 1.410658e-05
 1.250173e-05
 1.135318e-05
 1.038124e-05
 8.705077e-06
 5.854150e-06
 2.047139e-06
 -1.473758e-06
 -3.318741e-06
 -2.952494e-06
 1.131362e-06
 -8.773164e-05
 0.000000e+00
 0.000000e+00
 2.967856e-05
 2.005882e-05
 1.687842e-05
 1.538949e-05
 1.464477e-05
 1.425833e-05
 1.411807e-05
 1.422659e-05
 1.454150e-05
 1.502356e-05
 1.565939e-05
 1.644825e-05
 1.745602e-05
 1.875098e-05
 2.022130e-05
 2.156493e-05
 2.247353e-05
 2.273464e-05
 2.220592e-05
 2.078617e-05
 1.854027e-05
 1.573486e-05
 1.268449e-05
 9.822384e-06
 7.799205e-06
 7.082502e-06
 7.425739e-06
 8.006000e-06
 8.192765e-06
 8.105308e-06
 8.343322e-06
 9.225768e-06
 1.044379e-05
 1.151400e-05
 1.226940e-05
 1.272160e-05
 1.272925e-05
 1.214130e-05
 1.114771e-05
 1.004420e-05
 8.797996e-06
 7.152717e-06
 4.978219e-06
 2.488226e-06
 2.454625e-07
 -1.202073e-06
 -1.991140e-06
 -5.723654e-06
 -5.360233e-05
 0.000000e+00
 0.000000e+00
 2.878927e-05
 2.039633e-05
 1.719547e-05
 1.567094e-05
 1.490382e-05
 1.452188e-05
 1.438620e-05
 1.445015e-05
 1.468577e-05
 1.507074e-05
 1.559217e-05
 1.624788e-05
 1.704489e-05
 1.796571e-05
 1.891794e-05
 1.973482e-05
 2.023315e-05
 2.026397e-05
 1.972973e-05
 1.859760e-05
 1.693186e-05
 1.489998e-05
 1.274236e-05
 1.076171e-05
 9.279858e-06
 8.480652e-06
 8.263892e-06
 8.318836e-06
 8.390739e-06
 8.472935e-06
 8.728277e-06
 9.246638e-06
 9.921003e-06
 1.055492e-05
 1.101041e-05
 1.121213e-05
 1.108926e-05
 1.060704e-05
 9.825934e-06
 8.834678e-06
 7.640832e-06
 6.191029e-06
 4.488833e-06
 2.685441e-06
 1.070257e-06
 -3.519714e-08
 -2.869932e-07
 3.893960e-06
 1.710398e-05
 0.000000e+00
 0.000000e+00
 2.036952e-05
 1.728220e-05
 1.603043e-05
 1.527434e-05
 1.481268e-05
 1.455322e-05
 1.445569e-05
 1.450276e-05
 1.468247e-05
 1.498301e-05
 1.539339e-05
 1.590298e-05
 1.649562e-05
 1.713461e-05
 1.774766e-05
 1.823022e-05
 1.846893e-05
 1.836813e-05
 1.786855e-05
 1.696144e-05
 1.570041e-05
 1.420180e-05
 1.263096e-05
 1.117955e-05
 1.002299e-05
 9.254485e-06
 8.842157e-06
 8.665316e-06
 8.612257e-06
 8.650994e-06
 8.809079e-06
 9.095565e-06
 9.454122e-06
 9.786852e-06
 1.000201e-05
 1.003182e-05
 9.829664e-06
 9.378105e-06
 8.695725e-06
 7.814502e-06
 6.750266e-06
 5.509342e-06
 4.127206e-06
 2.698790e-06
 1.373500e-06
 3.433705e-07
 -3.001114e-08
 2.658714e-06
 -1.048388e-04
 0.000000e+00
 0.000000e+00
 9.851080e-06
 1.330389e-05
 1.440757e-05
 1.459909e-05
 1.452747e-05
 1.442623e-05
 1.438107e-05
 1.442260e-05
 1.455852e-05
 1.478565e-05
 1.509482e-05
 1.547166e-05
 1.589347e-05
 1.632339e-05
 1.670635e-05
 1.697275e-05
 1.705040e-05
 1.687946e-05
 1.642567e-05
 1.569013e-05
 1.471479e-05
 1.358081e-05
 1.239839e-05
 1.128828e-05
 1.035461e-05
 9.655201e-06
 9.187327e-06
 8.904382e-06
 8.753833e-06
 8.705461e-06
 8.748099e-06
 8.864810e-06
 9.015332e-06
 9.141060e-06
 9.181867e-06
 9.088272e-06
 8.826635e-06
 8.382554e-06
 7.760348e-06
 6.974672e-06
 6.041563e-06
 4.979994e-06
 3.821630e-06
 2.613271e-06
 1.397411e-06
 1.671728e-07
 -1.215122e-06
 -2.292703e-06
 -3.602387e-05
 0.000000e+00
 0.000000e+00
 5.235604e-06
 1.160334e-05
 1.353211e-05
 1.412947e-05
 1.425124e-05
 1.423539e-05
 1.421640e-05
 1.424638e-05
 1.434246e-05
 1.450547e-05
 1.472730e-05
 1.499296e-05
 1.527994e-05
 1.555644e-05
 1.578108e-05
 1.590618e-05
 1.588479e-05
 1.567966e-05
 1.527155e-05
 1.466540e-05
 1.389288e-05
 1.301029e-05
 1.209090e-05
 1.121240e-05
 1.044088e-05
 9.816352e-06
 9.346900e-06
 9.015826e-06
 8.797115e-06
 8.667670e-06
 8.608379e-06
 8.596831e-06
 8.601309e-06
 8.582196e-06
 8.498761e-06
 8.316059e-06
 8.009465e-06
 7.566893e-06
 6.988297e-06
 6.282464e-06
 5.463644e-06
 4.550637e-06
 3.566081e-06
 2.527621e-06
 1.416825e-06
 9.536191e-08
 -1.900943e-06
 -4.507282e-06
 -5.440068e-05
 0.000000e+00
 0.000000e+00
 1.149797e-05
 1.293193e-05
 1.379610e-05
 1.406130e-05
 1.408327e-05
 1.403573e-05
 1.399759e-05
 1.400164e-05
 1.405811e-05
 1.416543e-05
 1.431471e-05
 1.449137e-05
 1.467519e-05
 1.484019e-05
 1.495544e-05
 1.498771e-05
 1.490600e-05
 1.468696e-05
 1.432008e-05
 1.381127e-05
 1.318403e-05
 1.247739e-05
 1.174059e-05
 1.102493e-05
 1.037441e-05
 9.818037e-06
 9.366649e-06
 9.015763e-06
 8.752066e-06
 8.559119e-06
 8.419111e-06
 8.311342e-06
 8.210709e-06
 8.088699e-06
 7.916700e-06
 7.669903e-06
 7.330373e-06
 6.888734e-06
 6.344300e-06
 5.703967e-06
 4.980759e-06
 4.192560e-06
 3.359666e-06
 2.497577e-06
 1.598705e-06
 5.820821e-07
 -9.343011e-07
 -7.730046e-06
 -1.674873e-06
 0.000000e+00
 0.000000e+00
 1.756033e-05
 1.544466e-05
 1.460901e-05
 1.420704e-05
 1.397019e-05
 1.381965e-05
 1.373316e-05
 1.370265e-05
 1.372180e-05
 1.378249e-05
 1.387381e-05
 1.398163e-05
 1.408838e-05
 1.417324e-05
 1.421310e-05
 1.418452e-05
 1.406671e-05
 1.384491e-05
 1.351355e-05
 1.307828e-05
 1.255636e-05
 1.197504e-05
 1.136790e-05
 1.076966e-05
 1.021060e-05
 9.712063e-06
 9.284454e-06
 8.928122e-06
 8.636144e-06
 8.397141e-06
 8.196787e-06
 8.018076e-06
 7.841458e-06
 7.645851e-06
 7.410624e-06
 7.117952e-06
 6.754876e-06
 6.314641e-06
 5.797211e-06
 5.209173e-06
 4.563391e-06
 3.878657e-06
 3.179216e-06
 2.494660e-06
 1.866802e-06
 1.403308e-06
 1.606665e-06
 7.424892e-06
 7.052696e-05
 0.000000e+00
 0.000000e+00
 2.298156e-05
 1.691118e-05
 1.506779e-05
 1.421339e-05
 1.377809e-05
 1.354123e-05
 1.341284e-05
 1.335366e-05
 1.334345e-05
 1.336838e-05
 1.341584e-05
 1.347240e-05
 1.352304e-05
 1.355122e-05
 1.353963e-05
 1.347158e-05
 1.333295e-05
 1.311434e-05
 1.281294e-05
 1.243365e-05
 1.198917e-05
 1.149871e-05
 1.098554e-05
 1.047365e-05
 9.984349e-06
 9.533430e-06
 9.129773e-06
 8.775429e-06
 8.466794e-06
 8.196069e-06
 7.952368e-06
 7.722429e-06
 7.491259e-06
 7.243103e-06
 6.962824e-06
 6.637462e-06
 6.257679e-06
 5.818850e-06
 5.321774e-06
 4.773117e-06
 4.185888e-06
 3.580256e-06
 2.985139e-06
 2.441447e-06
 2.009530e-06
 1.790133e-06
 2.009487e-06
 4.544255e-06
 -1.033605e-04
 0.000000e+00
 0.000000e+00
 1.918659e-05
 1.622085e-05
 1.467498e-05
 1.384893e-05
 1.340631e-05
 1.316164e-05
 1.302605e-05
 1.295656e-05
 1.293010e-05
 1.293157e-05
 1.294849e-05
 1.296881e-05
 1.298000e-05
 1.296907e-05
 1.292305e-05
 1.283001e-05
 1.268030e-05
 1.246789e-05
 1.219154e-05
 1.185534e-05
 1.146867e-05
 1.104523e-05
 1.060141e-05
 1.015410e-05
 9.718515e-06
 9.306367e-06
 8.924831e-06
 8.576337e-06
 8.259036e-06
 7.967578e-06
 7.693888e-06
 7.427875e-06
 7.158143e-06
 6.872846e-06
 6.560720e-06
 6.212191e-06
 5.820437e-06
 5.382286e-06
 4.898965e-06
 4.376807e-06
 3.828207e-06
 3.273243e-06
 2.742603e-06
 2.282127e-06
 1.954487e-06
 1.799033e-06
 1.489270e-06
 -3.158782e-06
 6.016436e-07
 0.000000e+00
 0.000000e+00
 1.641222e-05
 1.436198e-05
 1.358324e-05
 1.312973e-05
 1.285180e-05
 1.267993e-05
 1.257610e-05
 1.251758e-05
 1.248920e-05
 1.247932e-05
 1.247766e-05
 1.247425e-05
 1.245908e-05
 1.242216e-05
 1.235387e-05
 1.224572e-05
 1.209114e-05
 1.188631e-05
 1.163088e-05
 1.132824e-05
 1.098538e-05
 1.061223e-05
 1.022048e-05
 9.822227e-06
 9.428459e-06
 9.047883e-06
 8.686126e-06
 8.345468e-06
 8.024986e-06
 7.720981e-06
 7.427509e-06
 7.136959e-06
 6.840684e-06
 6.529702e-06
 6.195482e-06
 5.830759e-06
 5.430325e-06
 4.991739e-06
 4.515985e-06
 4.008184e-06
 3.478601e-06
 2.944422e-06
 2.433286e-06
 1.990757e-06
 1.697413e-06
 1.714982e-06
 2.468746e-06
 7.595429e-06
 1.878420e-05
 0.000000e+00
 0.000000e+00
 1.211139e-05
 1.188375e-05
 1.219979e-05
 1.224544e-05
 1.219590e-05
 1.213253e-05
 1.208203e-05
 1.204899e-05
 1.203001e-05
 1.201890e-05
 1.200854e-05
 1.199143e-05
 1.196000e-05
 1.190678e-05
 1.182487e-05
 1.170833e-05
 1.155280e-05
 1.135598e-05
 1.111806e-05
 1.084186e-05
 1.053270e-05
 1.019787e-05
 9.845877e-06
 9.485468e-06
 9.124685e-06
 8.770008e-06
 8.425783e-06
 8.093955e-06
 7.774084e-06
 7.463574e-06
 7.158032e-06
 6.851711e-06
 6.538007e-06
 6.210010e-06
 5.861091e-06
 5.485502e-06
 5.078936e-06
 4.639041e-06
 4.165890e-06
 3.662455e-06
 3.135235e-06
 2.595319e-06
 2.060596e-06
 1.561517e-06
 1.160073e-06
 1.024395e-06
 1.737450e-06
 7.061756e-06
 -8.587681e-05
 0.000000e+00
 0.000000e+00
 5.565458e-06
 9.920168e-06
 1.107402e-05
 1.143812e-05
 1.154551e-05
 1.156908e-05
 1.156937e-05
 1.156598e-05
 1.156280e-05
 1.155768e-05
 1.154615e-05
 1.152298e-05
 1.148276e-05
 1.142027e-05
 1.133075e-05
 1.121030e-05
 1.105618e-05
 1.086719e-05
 1.064393e-05
 1.038879e-05
 1.010590e-05
 9.800733e-06
 9.479558e-06
 9.148816e-06
 8.814440e-06
 8.481272e-06
 8.152640e-06
 7.830123e-06
 7.513520e-06
 7.200970e-06
 6.889190e-06
 6.573795e-06
 6.249670e-06
 5.911385e-06
 5.553613e-06
 5.171549e-06
 4.761278e-06
 4.320081e-06
 3.846657e-06
 3.341247e-06
 2.805624e-06
 2.242854e-06
 1.656440e-06
 1.047632e-06
 4.069804e-07
 -3.131368e-07
 -1.282707e-06
 -5.037036e-07
 -7.054459e-05
 0.000000e+00
 0.000000e+00
 8.662503e-06
 9.982480e-06
 1.057351e-05
 1.084244e-05
 1.096355e-05
 1.102313e-05
 1.105812e-05
 1.108187e-05
 1.109723e-05
 1.110275e-05
 1.109537e-05
 1.107160e-05
 1.102789e-05
 1.096092e-05
 1.086778e-05
 1.074618e-05
 1.059471e-05
 1.041300e-05
 1.020195e-05
 9.963697e-06
 9.701523e-06
 9.419623e-06
 9.122719e-06
 8.815612e-06
 8.502729e-06
 8.187706e-06
 7.873079e-06
 7.560096e-06
 7.248664e-06
 6.937412e-06
 6.623841e-06
 6.304553e-06
 5.975512e-06
 5.632334e-06
 5.270578e-06
 4.886005e-06
 4.474784e-06
 4.033606e-06
 3.559673e-06
 3.050481e-06
 2.503272e-06
 1.913788e-06
 1.273306e-06
 5.606107e-07
 -2.835178e-07
 -1.451119e-06
 -3.666942e-06
 -1.130383e-05
 -7.299026e-05
 0.000000e+00
 0.000000e+00
 1.345834e-05
 1.063810e-05
 1.037464e-05
 1.037959e-05
 1.043546e-05
 1.049815e-05
 1.055654e-05
 1.060553e-05
 1.064128e-05
 1.066065e-05
 1.066101e-05
 1.064019e-05
 1.059633e-05
 1.052784e-05
 1.043341e-05
 1.031213e-05
 1.016367e-05
 9.988375e-06
 9.787386e-06
 9.562674e-06
 9.316958e-06
 9.053533e-06
 8.776017e-06
 8.488051e-06
 8.192970e-06
 7.893525e-06
 7.591646e-06
 7.288302e-06
 6.983440e-06
 6.676020e-06
 6.364103e-06
 6.045007e-06
 5.715481e-06
 5.371897e-06
 5.010432e-06
 4.627201e-06
 4.218336e-06
 3.779945e-06
 3.307922e-06
 2.797522e-06
 2.242561e-06
 1.633998e-06
 9.574130e-07
 1.886396e-07
 -7.128613e-07
 -1.807934e-06
 -3.147671e-06
 -5.306071e-06
 6.709955e-05
 0.000000e+00
 0.000000e+00
 1.081118e-05
 1.040397e-05
 1.000371e-05
 9.884220e-06
 9.904036e-06
 9.978087e-06
 1.006451e-05
 1.014251e-05
 1.020183e-05
 1.023762e-05
 1.024787e-05
 1.023185e-05
 1.018946e-05
 1.012077e-05
 1.002597e-05
 9.905390e-06
 9.759614e-06
 9.589577e-06
 9.396667e-06
 9.182755e-06
 8.950158e-06
 8.701535e-06
 8.439717e-06
 8.167502e-06
 7.887438e-06
 7.601615e-06
 7.311508e-06
 7.017857e-06
 6.720625e-06
 6.418999e-06
 6.111450e-06
 5.795829e-06
 5.469475e-06
 5.129334e-06
 4.772055e-06
 4.394032e-06
 3.991385e-06
 3.559818e-06
 3.094326e-06
 2.588676e-06
 2.034607e-06
 1.420680e-06
 7.310000e-07
 -5.459298e-08
 -9.502739e-07
 -1.899779e-06
 -2.412226e-06
 2.807333e-06
 -1.887348e-05
 0.000000e+00
 0.000000e+00
 1.176394e-05
 9.747063e-06
 9.348855e-06
 9.262755e-06
 9.325078e-06
 9.448843e-06
 9.582509e-06
 9.699034e-06
 9.786319e-06
 9.840361e-06
 9.861065e-06
 9.849933e-06
 9.808900e-06
 9.739825e-06
 9.644343e-06
 9.523906e-06
 9.379892e-06
 9.213735e-06
 9.027027e-06
 8.821577e-06
 8.599414e-06
 8.362728e-06
 8.113772e-06
 7.854727e-06
 7.587558e-06
 7.313867e-06
 7.034780e-06
 6.750864e-06
 6.462083e-06
 6.167796e-06
 5.866786e-06
 5.557318e-06
 5.237206e-06
 4.903871e-06
 4.554378e-06
 4.185421e-06
 3.793240e-06
 3.373422e-06
 2.920559e-06
 2.427729e-06
 1.885749e-06
 1.282229e-06
 6.005399e-07
 -1.810264e-07
 -1.090309e-06
 -2.174988e-06
 -3.663055e-06
 -9.509507e-06
 -5.473704e-05
 0.000000e+00
 0.000000e+00
 8.339757e-06
 8.449612e-06
 8.421106e-06
 8.500770e-06
 8.690546e-06
 8.913757e-06
 9.120055e-06
 9.286068e-06
 9.404656e-06
 9.476671e-06
 9.506153e-06
 9.497892e-06
 9.456342e-06
 9.385255e-06
 9.287662e-06
 9.166009e-06
 9.022341e-06
 8.858481e-06
 8.676167e-06
 8.477143e-06
 8.263204e-06
 8.036178e-06
 7.797878e-06
 7.550017e-06
 7.294120e-06
 7.031419e-06
 6.762780e-06
 6.488635e-06
 6.208952e-06
 5.923229e-06
 5.630503e-06
 5.329387e-06
 5.018103e-06
 4.694508e-06
 4.356091e-06
 3.999930e-06
 3.622573e-06
 3.219822e-06
 2.786390e-06
 2.315400e-06
 1.797717e-06
 1.221088e-06
 5.690388e-07
 -1.813435e-07
 -1.067472e-06
 -2.175416e-06
 -3.755556e-06
 -6.417462e-06
 8.455867e-05
 0.000000e+00
 0.000000e+00
 7.626887e-06
 7.352974e-06
 7.308949e-06
 7.626589e-06
 8.028529e-06
 8.400192e-06
 8.700483e-06
 8.921758e-06
 9.070036e-06
 9.155603e-06
 9.188909e-06
 9.179013e-06
 9.133197e-06
 9.057093e-06
 8.954974e-06
 8.830089e-06
 8.684971e-06
 8.521685e-06
 8.342024e-06
 8.147631e-06
 7.940079e-06
 7.720887e-06
 7.491511e-06
 7.253296e-06
 7.007422e-06
 6.754838e-06
 6.496206e-06
 6.231863e-06
 5.961786e-06
 5.685593e-06
 5.402544e-06
 5.111564e-06
 4.811252e-06
 4.499898e-06
 4.175462e-06
 3.835515e-06
 3.477124e-06
 3.096644e-06
 2.689405e-06
 2.249253e-06
 1.767943e-06
 1.234401e-06
 6.339876e-07
 -5.191706e-08
 -8.455815e-07
 -1.770913e-06
 -2.833653e-06
 -5.464029e-06
 -2.100455e-06
 0.000000e+00
 0.000000e+00
 8.571397e-06
 5.364942e-06
 5.892319e-06
 6.691707e-06
 7.407995e-06
 7.963058e-06
 8.361933e-06
 8.631023e-06
 8.798086e-06
 8.886533e-06
 8.914561e-06
 8.895772e-06
 8.840115e-06
 8.754778e-06
 8.644934e-06
 8.514327e-06
 8.365723e-06
 8.201242e-06
 8.022601e-06
 7.831273e-06
 7.628583e-06
 7.415763e-06
 7.193955e-06
 6.964197e-06
 6.727387e-06
 6.484248e-06
 6.235286e-06
 5.980763e-06
 5.720676e-06
 5.454756e-06
 5.182466e-06
 4.903019e-06
 4.615389e-06
 4.318308e-06
 4.010261e-06
 3.689429e-06
 3.353596e-06
 2.999983e-06
 2.624988e-06
 2.223792e-06
 1.789800e-06
 1.313898e-06
 7.837895e-07
 1.848614e-07
 -4.913935e-07
 -1.212949e-06
 -1.833438e-06
 -3.904827e-06
 8.610866e-05
 0.000000e+00
 0.000000e+00
 -2.322775e-06
 2.232087e-06
 4.324005e-06
 5.876327e-06
 6.959726e-06
 7.684720e-06
 8.153062e-06
 8.441481e-06
 8.603852e-06
 8.677111e-06
 8.686423e-06
 8.648944e-06
 8.576380e-06
 8.476735e-06
 8.355496e-06
 8.216457e-06
 8.062286e-06
 7.894921e-06
 7.715844e-06
 7.526259e-06
 7.327204e-06
 7.119610e-06
 6.904327e-06
 6.682118e-06
 6.453645e-06
 6.219440e-06
 5.979883e-06
 5.735181e-06
 5.485357e-06
 5.230245e-06
 4.969504e-06
 4.702621e-06
 4.428934e-06
 4.147637e-06
 3.857782e-06
 3.558253e-06
 3.247714e-06
 2.924507e-06
 2.586480e-06
 2.230710e-06
 1.853011e-06
 1.447064e-06
 1.002811e-06
 5.040104e-07
 -7.194707e-08
 -7.265844e-07
 -1.218490e-06
 4.724448e-07
 3.425482e-05
 0.000000e+00
 0.000000e+00
 -4.502715e-06
 -3.568548e-07
 3.310141e-06
 5.536811e-06
 6.867085e-06
 7.658437e-06
 8.120248e-06
 8.375195e-06
 8.496814e-06
 8.530330e-06
 8.504193e-06
 8.436599e-06
 8.339318e-06
 8.220009e-06
 8.083676e-06
 7.933602e-06
 7.771969e-06
 7.600268e-06
 7.419569e-06
 7.230699e-06
 7.034350e-06
 6.831132e-06
 6.621607e-06
 6.406283e-06
 6.185609e-06
 5.959955e-06
 5.729594e-06
 5.494691e-06
 5.255293e-06
 5.011338e-06
 4.762657e-06
 4.509003e-06
 4.250065e-06
 3.985497e-06
 3.714941e-06
 3.438035e-06
 3.154421e-06
 2.863725e-06
 2.565518e-06
 2.259221e-06
 1.943879e-06
 1.617500e-06
 1.274922e-06
 9.008120e-07
 4.467414e-07
 -2.427609e-07
 -1.669010e-06
 -7.316241e-06
 1.624828e-05
 0.000000e+00
 0.000000e+00
 -1.267220e-05
 -8.790690e-07
 3.725428e-06
 6.055909e-06
 7.289215e-06
 7.947992e-06
 8.286557e-06
 8.437764e-06
 8.475210e-06
 8.441566e-06
 8.362387e-06
 8.253278e-06
 8.123853e-06
 7.980030e-06
 7.825419e-06
 7.662194e-06
 7.491653e-06
 7.314573e-06
 7.131442e-06
 6.942608e-06
 6.748356e-06
 6.548955e-06
 6.344675e-06
 6.135784e-06
 5.922537e-06
 5.705158e-06
 5.483828e-06
 5.258675e-06
 5.029772e-06
 4.797141e-06
 4.560775e-06
 4.320663e-06
 4.076823e-06
 3.829347e-06
 3.578449e-06
 3.324523e-06
 3.068201e-06
 2.810433e-06
 2.552592e-06
 2.296634e-06
 2.045364e-06
 1.802792e-06
 1.574186e-06
 1.363343e-06
 1.155123e-06
 8.291490e-07
 -2.410890e-07
 -8.714216e-06
 1.038633e-04
 0.000000e+00
 0.000000e+00
 -4.504193e-06
 3.123468e-06
 6.169345e-06
 7.579838e-06
 8.246438e-06
 8.539518e-06
 8.631168e-06
 8.609298e-06
 8.522008e-06
 8.396763e-06
 8.249555e-06
 8.089680e-06
 7.922417e-06
 7.750608e-06
 7.575634e-06
 7.398021e-06
 7.217831e-06
 7.034905e-06
 6.849011e-06
 6.659933e-06
 6.467510e-06
 6.271656e-06
 6.072352e-06
 5.869638e-06
 5.663590e-06
 5.454303e-06
 5.241876e-06
 5.026402e-06
 4.807971e-06
 4.586677e-06
 4.362645e-06
 4.136064e-06
 3.907238e-06
 3.676647e-06
 3.445026e-06
 3.213459e-06
 2.983496e-06
 2.757310e-06
 2.537920e-06
 2.329562e-06
 2.138407e-06
 1.974148e-06
 1.853844e-06
 1.811663e-06
 1.924208e-06
 2.378989e-06
 3.679991e-06
 5.521242e-06
 1.418144e-04
 0.000000e+00
 0.000000e+00
 1.190448e-05
 1.053886e-05
 1.004523e-05
 9.775329e-06
 9.548802e-06
 9.320035e-06
 9.083257e-06
 8.843055e-06
 8.604957e-06
 8.372860e-06
 8.148748e-06
 7.933081e-06
 7.725292e-06
 7.524216e-06
 7.328414e-06
 7.136389e-06
 6.946734e-06
 6.758208e-06
 6.569776e-06
 6.380615e-06
 6.190109e-06
 5.997815e-06
 5.803446e-06
 5.606828e-06
 5.407881e-06
 5.206586e-06
 5.002969e-06
 4.797088e-06
 4.589038e-06
 4.378963e-06
 4.167082e-06
 3.953739e-06
 3.739459e-06
 3.525035e-06
 3.311627e-06
 3.100893e-06
 2.895151e-06
 2.697584e-06