<VTKFile type="UnstructuredGrid"  version="0.1"   >
<UnstructuredGrid>  
<Piece  NumberOfPoints="     2601"  NumberOfCells="     5000">  
<Points>  
<DataArray  type="Float64"  NumberOfComponents="3"  format="ascii">  
 0.000000 0.000000 0.000000 
 0.020000 0.000000 0.000000 
 0.040000 0.000000 0.000000 
 0.060000 0.000000 0.000000 
 0.080000 0.000000 0.000000 
 0.100000 0.000000 0.000000 
 0.120000 0.000000 0.000000 
 0.140000 0.000000 0.000000 
 0.160000 0.000000 0.000000 
 0.180000 0.000000 0.000000 
 0.200000 0.000000 0.000000 
 0.220000 0.000000 0.000000 
 0.240000 0.000000 0.000000 
 0.260000 0.000000 0.000000 
 0.280000 0.000000 0.000000 
 0.300000 0.000000 0.000000 
 0.320000 0.000000 0.000000 
 0.340000 0.000000 0.000000 
 0.360000 0.000000 0.000000 
 0.380000 0.000000 0.000000 
 0.400000 0.000000 0.000000 
 0.420000 0.000000 0.000000 
 0.440000 0.000000 0.000000 
 0.460000 0.000000 0.000000 
 0.480000 0.000000 0.000000 
 0.500000 0.000000 0.000000 
 0.520000 0.000000 0.000000 
 0.540000 0.000000 0.000000 
 0.560000 0.000000 0.000000 
 0.580000 0.000000 0.000000 
 0.600000 0.000000 0.000000 
 0.620000 0.000000 0.000000 
 0.640000 0.000000 0.000000 
 0.660000 0.000000 0.000000 
 0.680000 0.000000 0.000000 
 0.700000 0.000000 0.000000 
 0.720000 0.000000 0.000000 
 0.740000 0.000000 0.000000 
 0.760000 0.000000 0.000000 
 0.780000 0.000000 0.000000 
 0.800000 0.000000 0.000000 
 0.820000 0.000000 0.000000 
 0.840000 0.000000 0.000000 
 0.860000 0.000000 0.000000 
 0.880000 0.000000 0.000000 
 0.900000 0.000000 0.000000 
 0.920000 0.000000 0.000000 
 0.940000 0.000000 0.000000 
 0.960000 0.000000 0.000000 
 0.980000 0.000000 0.000000 
 1.000000 0.000000 0.000000 
 0.000000 0.020000 0.000000 
 0.020000 0.020000 0.000000 
 0.040000 0.020000 0.000000 
 0.060000 0.020000 0.000000 
 0.080000 0.020000 0.000000 
 0.100000 0.020000 0.000000 
 0.120000 0.020000 0.000000 
 0.140000 0.020000 0.000000 
 0.160000 0.020000 0.000000 
 0.180000 0.020000 0.000000 
 0.200000 0.020000 0.000000 
 0.220000 0.020000 0.000000 
 0.240000 0.020000 0.000000 
 0.260000 0.020000 0.000000 
 0.280000 0.020000 0.000000 
 0.300000 0.020000 0.000000 
 0.320000 0.020000 0.000000 
 0.340000 0.020000 0.000000 
 0.360000 0.020000 0.000000 
 0.380000 0.020000 0.000000 
 0.400000 0.020000 0.000000 
 0.420000 0.020000 0.000000 
 0.440000 0.020000 0.000000 
 0.460000 0.020000 0.000000 
 0.480000 0.020000 0.000000 
 0.500000 0.020000 0.000000 
 0.520000 0.020000 0.000000 
 0.540000 0.020000 0.000000 
 0.560000 0.020000 0.000000 
 0.580000 0.020000 0.000000 
 0.600000 0.020000 0.000000 
 0.620000 0.020000 0.000000 
 0.640000 0.020000 0.000000 
 0.660000 0.020000 0.000000 
 0.680000 0.020000 0.000000 
 0.700000 0.020000 0.000000 
 0.720000 0.020000 0.000000 
 0.740000 0.020000 0.000000 
 0.760000 0.020000 0.000000 
 0.780000 0.020000 0.000000 
 0.800000 0.020000 0.000000 
 0.820000 0.020000 0.000000 
 0.840000 0.020000 0.000000 
 0.860000 0.020000 0.000000 
 0.880000 0.020000 0.000000 
 0.900000 0.020000 0.000000 
 0.920000 0.020000 0.000000 
 0.940000 0.020000 0.000000 
 0.960000 0.020000 0.000000 
 0.980000 0.020000 0.000000 
 1.000000 0.020000 0.000000 
 0.000000 0.040000 0.000000 
 0.020000 0.040000 0.000000 
 0.040000 0.040000 0.000000 
 0.060000 0.040000 0.000000 
 0.080000 0.040000 0.000000 
 0.100000 0.040000 0.000000 
 0.120000 0.040000 0.000000 
 0.140000 0.040000 0.000000 
 0.160000 0.040000 0.000000 
 0.180000 0.040000 0.000000 
 0.200000 0.040000 0.000000 
 0.220000 0.040000 0.000000 
 0.240000 0.040000 0.000000 
 0.260000 0.040000 0.000000 
 0.280000 0.040000 0.000000 
 0.300000 0.040000 0.000000 
 0.320000 0.040000 0.000000 
 0.340000 0.040000 0.000000 
 0.360000 0.040000 0.000000 
 0.380000 0.040000 0.000000 
 0.400000 0.040000 0.000000 
 0.420000 0.040000 0.000000 
 0.440000 0.040000 0.000000 
 0.460000 0.040000 0.000000 
 0.480000 0.040000 0.000000 
 0.500000 0.040000 0.000000 
 0.520000 0.040000 0.000000 
 0.540000 0.040000 0.000000 
 0.560000 0.040000 0.000000 
 0.580000 0.040000 0.000000 
 0.600000 0.040000 0.000000 
 0.620000 0.040000 0.000000 
 0.640000 0.040000 0.000000 
 0.660000 0.040000 0.000000 
 0.680000 0.040000 0.000000 
 0.700000 0.040000 0.000000 
 0.720000 0.040000 0.000000 
 0.740000 0.040000 0.000000 
 0.760000 0.040000 0.000000 
 0.780000 0.040000 0.000000 
 0.800000 0.040000 0.000000 
 0.820000 0.040000 0.000000 
 0.840000 0.040000 0.000000 
 0.860000 0.040000 0.000000 
 0.880000 0.040000 0.000000 
 0.900000 0.040000 0.000000 
 0.920000 0.040000 0.000000 
 0.940000 0.040000 0.000000 
 0.960000 0.040000 0.000000 
 0.980000 0.040000 0.000000 
 1.000000 0.040000 0.000000 
 0.000000 0.060000 0.000000 
 0.020000 0.060000 0.000000 
 0.040000 0.060000 0.000000 
 0.060000 0.060000 0.000000 
 0.080000 0.060000 0.000000 
 0.100000 0.060000 0.000000 
 0.120000 0.060000 0.000000 
 0.140000 0.060000 0.000000 
 0.160000 0.060000 0.000000 
 0.180000 0.060000 0.000000 
 0.200000 0.060000 0.000000 
 0.220000 0.060000 0.000000 
 0.240000 0.060000 0.000000 
 0.260000 0.060000 0.000000 
 0.280000 0.060000 0.000000 
 0.300000 0.060000 0.000000 
 0.320000 0.060000 0.000000 
 0.340000 0.060000 0.000000 
 0.360000 0.060000 0.000000 
 0.380000 0.060000 0.000000 
 0.400000 0.060000 0.000000 
 0.420000 0.060000 0.000000 
 0.440000 0.060000 0.000000 
 0.460000 0.060000 0.000000 
 0.480000 0.060000 0.000000 
 0.500000 0.060000 0.000000 
 0.520000 0.060000 0.000000 
 0.540000 0.060000 0.000000 
 0.560000 0.060000 0.000000 
 0.580000 0.060000 0.000000 
 0.600000 0.060000 0.000000 
 0.620000 0.060000 0.000000 
 0.640000 0.060000 0.000000 
 0.660000 0.060000 0.000000 
 0.680000 0.060000 0.000000 
 0.700000 0.060000 0.000000 
 0.720000 0.060000 0.000000 
 0.740000 0.060000 0.000000 
 0.760000 0.060000 0.000000 
 0.780000 0.060000 0.000000 
 0.800000 0.060000 0.000000 
 0.820000 0.060000 0.000000 
 0.840000 0.060000 0.000000 
 0.860000 0.060000 0.000000 
 0.880000 0.060000 0.000000 
 0.900000 0.060000 0.000000 
 0.920000 0.060000 0.000000 
 0.940000 0.060000 0.000000 
 0.960000 0.060000 0.000000 
 0.980000 0.060000 0.000000 
 1.000000 0.060000 0.000000 
 0.000000 0.080000 0.000000 
 0.020000 0.080000 0.000000 
 0.040000 0.080000 0.000000 
 0.060000 0.080000 0.000000 
 0.080000 0.080000 0.000000 
 0.100000 0.080000 0.000000 
 0.120000 0.080000 0.000000 
 0.140000 0.080000 0.000000 
 0.160000 0.080000 0.000000 
 0.180000 0.080000 0.000000 
 0.200000 0.080000 0.000000 
 0.220000 0.080000 0.000000 
 0.240000 0.080000 0.000000 
 0.260000 0.080000 0.000000 
 0.280000 0.080000 0.000000 
 0.300000 0.080000 0.000000 
 0.320000 0.080000 0.000000 
 0.340000 0.080000 0.000000 
 0.360000 0.080000 0.000000 
 0.380000 0.080000 0.000000 
 0.400000 0.080000 0.000000 
 0.420000 0.080000 0.000000 
 0.440000 0.080000 0.000000 
 0.460000 0.080000 0.000000 
 0.480000 0.080000 0.000000 
 0.500000 0.080000 0.000000 
 0.520000 0.080000 0.000000 
 0.540000 0.080000 0.000000 
 0.560000 0.080000 0.000000 
 0.580000 0.080000 0.000000 
 0.600000 0.080000 0.000000 
 0.620000 0.080000 0.000000 
 0.640000 0.080000 0.000000 
 0.660000 0.080000 0.000000 
 0.680000 0.080000 0.000000 
 0.700000 0.080000 0.000000 
 0.720000 0.080000 0.000000 
 0.740000 0.080000 0.000000 
 0.760000 0.080000 0.000000 
 0.780000 0.080000 0.000000 
 0.800000 0.080000 0.000000 
 0.820000 0.080000 0.000000 
 0.840000 0.080000 0.000000 
 0.860000 0.080000 0.000000 
 0.880000 0.080000 0.000000 
 0.900000 0.080000 0.000000 
 0.920000 0.080000 0.000000 
 0.940000 0.080000 0.000000 
 0.960000 0.080000 0.000000 
 0.980000 0.080000 0.000000 
 1.000000 0.080000 0.000000 
 0.000000 0.100000 0.000000 
 0.020000 0.100000 0.000000 
 0.040000 0.100000 0.000000 
 0.060000 0.100000 0.000000 
 0.080000 0.100000 0.000000 
 0.100000 0.100000 0.000000 
 0.120000 0.100000 0.000000 
 0.140000 0.100000 0.000000 
 0.160000 0.100000 0.000000 
 0.180000 0.100000 0.000000 
 0.200000 0.100000 0.000000 
 0.220000 0.100000 0.000000 
 0.240000 0.100000 0.000000 
 0.260000 0.100000 0.000000 
 0.280000 0.100000 0.000000 
 0.300000 0.100000 0.000000 
 0.320000 0.100000 0.000000 
 0.340000 0.100000 0.000000 
 0.360000 0.100000 0.000000 
 0.380000 0.100000 0.000000 
 0.400000 0.100000 0.000000 
 0.420000 0.100000 0.000000 
 0.440000 0.100000 0.000000 
 0.460000 0.100000 0.000000 
 0.480000 0.100000 0.000000 
 0.500000 0.100000 0.000000 
 0.520000 0.100000 0.000000 
 0.540000 0.100000 0.000000 
 0.560000 0.100000 0.000000 
 0.580000 0.100000 0.000000 
 0.600000 0.100000 0.000000 
 0.620000 0.100000 0.000000 
 0.640000 0.100000 0.000000 
 0.660000 0.100000 0.000000 
 0.680000 0.100000 0.000000 
 0.700000 0.100000 0.000000 
 0.720000 0.100000 0.000000 
 0.740000 0.100000 0.000000 
 0.760000 0.100000 0.000000 
 0.780000 0.100000 0.000000 
 0.800000 0.100000 0.000000 
 0.820000 0.100000 0.000000 
 0.840000 0.100000 0.000000 
 0.860000 0.100000 0.000000 
 0.880000 0.100000 0.000000 
 0.900000 0.100000 0.000000 
 0.920000 0.100000 0.000000 
 0.940000 0.100000 0.000000 
 0.960000 0.100000 0.000000 
 0.980000 0.100000 0.000000 
 1.000000 0.100000 0.000000 
 0.000000 0.120000 0.000000 
 0.020000 0.120000 0.000000 
 0.040000 0.120000 0.000000 
 0.060000 0.120000 0.000000 
 0.080000 0.120000 0.000000 
 0.100000 0.120000 0.000000 
 0.120000 0.120000 0.000000 
 0.140000 0.120000 0.000000 
 0.160000 0.120000 0.000000 
 0.180000 0.120000 0.000000 
 0.200000 0.120000 0.000000 
 0.220000 0.120000 0.000000 
 0.240000 0.120000 0.000000 
 0.260000 0.120000 0.000000 
 0.280000 0.120000 0.000000 
 0.300000 0.120000 0.000000 
 0.320000 0.120000 0.000000 
 0.340000 0.120000 0.000000 
 0.360000 0.120000 0.000000 
 0.380000 0.120000 0.000000 
 0.400000 0.120000 0.000000 
 0.420000 0.120000 0.000000 
 0.440000 0.120000 0.000000 
 0.460000 0.120000 0.000000 
 0.480000 0.120000 0.000000 
 0.500000 0.120000 0.000000 
 0.520000 0.120000 0.000000 
 0.540000 0.120000 0.000000 
 0.560000 0.120000 0.000000 
 0.580000 0.120000 0.000000 
 0.600000 0.120000 0.000000 
[...]
<PointData  Scalars="U"> 
<DataArray  type="Float64"  Name="U"  format="ascii"> 
 0.000000e+00
 0.000000e+00
 0.000000e+00
 0.000000e+00
 0.000000e+00
 0.000000e+00
 0.000000e+00
 0.000000e+00
 0.000000e+00
 0.000000e+00
 0.000000e+00
 0.000000e+00
 0.000000e+00
 0.000000e+00
 0.000000e+00
 0.000000e+00
 0.000000e+00
 0.000000e+00
 0.000000e+00
 0.000000e+00
 0.000000e+00
 0.000000e+00
 0.000000e+00
 0.000000e+00
 0.000000e+00
 0.000000e+00
 0.000000e+00
 0.000000e+00
 0.000000e+00
 0.000000e+00
 0.000000e+00
 0.000000e+00
 0.000000e+00
 0.000000e+00
 0.000000e+00
 0.000000e+00
 0.000000e+00
 0.000000e+00
 0.000000e+00
 0.000000e+00
 0.000000e+00
 0.000000e+00
 0.000000e+00
 0.000000e+00
 0.000000e+00
 0.000000e+00
 0.000000e+00
 0.000000e+00
 0.000000e+00
 0.000000e+00
 0.000000e+00
 0.000000e+00
 1.353498e-06
 9.318292e-07
 3.677474e-07
 7.446388e-08
 -1.509689e-07
 -2.804719e-07
 -9.263037e-07
 -3.655219e-06
 -2.349936e-05
 -4.408798e-06
 2.723959e-06
 6.107816e-06
 4.300744e-06
 -1.596159e-05
 9.915059e-07
 1.597789e-06
 1.121331e-07
 -1.816105e-05
 8.784305e-08
 3.872414e-07
 4.389485e-07
 -7.840448e-07
 4.353150e-07
 -1.583671e-05
 1.493553e-06
 2.344484e-06
 5.317009e-06
 7.520451e-06
 2.108864e-05
 1.258538e-06
 1.439264e-06
 6.779535e-07
 2.912648e-07
 7.291857e-08
 3.178082e-07
 8.928230e-07
 1.917648e-05
 4.441511e-06
 3.232865e-06
 -8.214107e-07
 -3.066854e-06
 -4.632998e-06
 -1.958501e-06
 1.910355e-06
 2.511014e-06
 5.775028e-07
 2.255447e-06
 3.158693e-06
 6.814432e-07
 0.000000e+00
 0.000000e+00
 4.737414e-06
 1.892986e-06
 2.755790e-07
 3.344740e-07
 -9.913114e-07
 -2.312402e-07
 -2.174099e-07
 -2.515764e-06
 1.487874e-05
 -5.636116e-07
 -1.986475e-07
 2.374635e-06
 2.257613e-06
 1.524893e-06
 2.075372e-06
 7.922677e-07
 -1.770321e-05
 1.829493e-07
 4.505733e-07
 8.668409e-07
 1.719724e-06
 9.537811e-07
 1.778720e-05
 1.420050e-06
 2.916349e-06
 2.421177e-06
 3.713036e-06
 6.273776e-06
 3.478286e-06
 1.730326e-05
 7.011344e-07
 1.764837e-06
 5.431385e-07
 -2.822504e-07
 -3.920574e-07
 1.843678e-06
 2.063325e-06
 4.285974e-07
 -1.625155e-05
 1.421143e-06
 -6.919501e-07
 -6.727857e-07
 1.665789e-05
 1.659510e-05
 -1.704124e-05
 -1.649464e-05
 1.337344e-06
 1.309430e-06
 6.845730e-07
 0.000000e+00
 0.000000e+00
 4.004458e-06
 -1.518732e-05
 1.604000e-06
 1.229111e-06
 8.506637e-07
 1.760562e-05
 -5.305706e-07
 -3.692802e-07
 -1.239689e-06
 -2.718284e-06
 5.308285e-07
 1.928308e-05
 9.710636e-07
 7.042708e-07
 -4.014516e-07
 1.038109e-06
 1.277609e-06
 1.167699e-06
 8.320237e-07
 1.857228e-05
 1.458735e-06
 2.179117e-06
 1.467969e-06
 1.410521e-06
 1.561374e-06
 1.157386e-06
 1.193254e-06
 3.250874e-06
 -1.314064e-05
 1.435686e-06
 -8.165679e-07
 2.206539e-07
 -1.668873e-05
 1.217429e-06
 1.335603e-06
 1.878299e-05
 6.553272e-07
 -4.338108e-07
 3.960245e-07
 1.534957e-06
 -1.721938e-05
 7.319654e-07
 -1.697061e-05
 -1.991024e-06
 -6.571370e-07
 1.694390e-06
 1.392540e-06
 7.985110e-07
 4.426903e-07
 0.000000e+00
 0.000000e+00
 1.341314e-06
 2.130537e-06
 3.038070e-06
 1.966891e-06
 3.235774e-06
 6.263732e-07
 -1.942212e-06
 -4.643239e-07
 -2.699948e-07
 1.652110e-07
 1.981993e-05
 5.627031e-07
 -1.474276e-06
 2.096370e-07
 3.434716e-07
 1.779928e-05
 -1.682426e-05
 1.064326e-06
 6.699047e-07
 1.084538e-06
 8.034812e-07
 1.504470e-06
 2.565437e-06
 1.378648e-06
 -1.670406e-05
 2.553506e-06
 6.384785e-07
 1.924420e-05
 3.738639e-06
 1.752104e-06
 -4.303247e-07
 -1.526830e-06
 1.001630e-06
 3.504873e-06
 2.551217e-06
 2.174103e-06
 -9.307987e-07
 -9.333372e-07
 8.968724e-08
 -2.530654e-07
 1.740642e-07
 6.209220e-07
 4.667123e-07
 1.415796e-06
 2.301948e-07
 -1.706162e-05
 6.449368e-07
 5.302351e-07
 2.704514e-07
 0.000000e+00
 0.000000e+00
 2.866771e-06
 1.839862e-06
 1.674468e-06
 1.709504e-06
 1.692189e-06
 -1.637323e-05
 4.113682e-07
 1.212670e-07
 2.466246e-07
 1.068444e-06
 4.994101e-07
 -1.826725e-05
 1.401719e-07
 4.267502e-07
 9.820899e-07
 -4.912403e-07
 -4.703844e-07
 2.283682e-06
 1.292487e-06
 1.844760e-05
 8.011187e-07
 8.085102e-07
 9.354068e-07
 -1.590205e-05
 1.462146e-06
 2.263548e-06
 -1.506806e-05
 1.857286e-05
 -1.790403e-05
 -1.662651e-05
 1.100017e-06
 9.954465e-07
 1.871906e-05
 1.565598e-06
 1.388038e-06
 8.478551e-07
 -1.823530e-05
 -7.895210e-07
 9.416448e-07
 8.770528e-07
 1.173604e-07
 -1.059364e-06
 2.375556e-07
 2.104664e-06
 7.972641e-07
 -1.813399e-07
 1.015507e-06
 4.138661e-07
 7.623726e-08
 0.000000e+00
 0.000000e+00
 1.730452e-06
 1.391708e-06
 1.001298e-07
 1.249960e-06
 1.482067e-06
 1.450761e-06
 2.203686e-06
 5.765040e-07
 1.865024e-07
 2.302263e-07
 -4.334442e-07
 2.793455e-07
 1.649590e-06
 7.458301e-07
 5.386361e-07
 -7.167488e-07
 7.404074e-07
 2.111084e-06
 9.308577e-07
 5.949428e-07
 -2.112107e-07
 1.115561e-07
 -3.977123e-07
 7.500543e-07
 -1.494301e-05
 1.536333e-06
 2.677218e-06
 1.196241e-06
 -2.970474e-06
 5.354443e-07
 3.531168e-06
 2.193839e-06
 1.362116e-06
 5.101226e-07
 -9.136570e-08
 4.117656e-07
 8.069539e-07
 2.057018e-05
 1.737097e-05
 -7.436231e-07
 4.904068e-07
 -3.899938e-08
 1.726752e-05
 -1.531395e-06
 -1.788137e-05
 -1.646608e-05
 1.905850e-06
 5.076950e-07
 -5.626138e-07
 0.000000e+00
 0.000000e+00
 1.028793e-06
 1.620080e-06
 2.687045e-07
 1.849379e-05
 1.721901e-06
 1.352025e-06
 2.198237e-06
 4.261856e-07
 -5.767168e-07
 2.076000e-07
 3.187986e-07
 5.112005e-07
 7.881474e-07
 8.404528e-07
 8.511428e-07
 8.808370e-07
 1.846095e-05
 2.095271e-06
 2.071099e-06
 1.734548e-05
 -8.167700e-07
 -2.558636e-07
 -1.301943e-07
 -1.054671e-07
 1.460015e-06
 3.216251e-06
 3.349864e-06
 1.267532e-06
 -1.308160e-06
 1.729866e-05
 1.972301e-05
 2.246536e-06
 1.846030e-05
 -4.318891e-07
 2.017215e-06
 1.971589e-05
 2.948020e-06
 1.941950e-05
 -1.898228e-05
 1.576855e-05
 -8.104301e-07
 1.246641e-07
 7.159580e-07
 -2.518741e-06
 1.506639e-05
 6.699478e-07
 1.580132e-06
 -1.683447e-05
 2.914825e-07
 0.000000e+00
 0.000000e+00
 2.140551e-06
 3.053157e-06
 2.961023e-06
 1.781252e-05
 -5.464966e-07
 7.992645e-07
 8.872435e-07
 -1.833835e-05
 -1.924324e-07
 9.858569e-07
 7.587146e-07
 7.042598e-07
 7.202776e-07
 8.140952e-07
 1.103690e-06
 1.891881e-06
 1.618445e-06
 -2.073750e-06
 -1.699515e-05
 -1.604946e-05
 -8.474533e-07
 -1.162533e-07
 -6.875823e-07
 7.705911e-07
 8.504300e-07
 1.737180e-06
 2.573475e-06
 -1.557705e-05
 2.426850e-06
 2.059189e-05
 1.731697e-05
 -4.343799e-07
 4.494081e-07
 -9.015481e-07
 1.846436e-05
 -1.613735e-05
 2.345951e-06
 -1.670408e-05
 7.054640e-07
 8.407139e-07
 -2.746679e-06
 -3.314467e-06
 4.404579e-07
 -1.621824e-05
 -1.498930e-06
 -2.873455e-06
 -8.545151e-07
 8.872313e-07
 1.422429e-06
 0.000000e+00
 0.000000e+00
 9.094881e-07
 1.872519e-05
 -1.543120e-05
 9.020300e-07
 -8.837412e-07
 5.224553e-07
 2.421319e-06
 4.556421e-07
 1.621701e-05
 2.440351e-07
 1.353042e-06
 7.636258e-07
 6.099346e-07
 6.245244e-07
 8.768985e-07
 1.991920e-06
 2.690660e-07
 -2.012505e-05
 1.718316e-05
 3.757019e-06
 8.670678e-07
 -7.074248e-10
 1.587923e-06
 1.982879e-05
 1.282723e-06
 1.806699e-05
 6.557702e-07
 1.589024e-06
 3.500633e-06
 2.052544e-06
 -1.895780e-05
 -6.159558e-07
 1.165739e-06
 -3.709837e-07
 -2.951125e-06
 -2.346338e-07
 1.572627e-06
 -1.619862e-05
 2.790916e-06
 -1.582793e-05
 -2.815508e-07
 -1.569252e-06
 3.325657e-05
 -1.915346e-05
 8.522637e-07
 3.825101e-07
 1.690272e-05
 -6.281452e-07
 -1.175817e-07
 0.000000e+00
 0.000000e+00
 9.558973e-07
 -1.316597e-06
 -4.131497e-07
 2.293190e-06
 -7.905043e-07
 2.369319e-07
 1.437102e-06
 -3.331458e-05
 7.059917e-07
 1.682103e-05
 4.339963e-07
 5.815435e-07
 3.644058e-07
 2.074601e-07
 2.685605e-07
 3.364201e-07
 -1.748269e-05
 1.216265e-06
 1.897946e-05
 -2.282280e-07
 -1.641996e-05
 1.861306e-05
 1.633679e-06
 1.061016e-06
 -1.652971e-05
 1.553027e-06
 1.030716e-06
 6.947777e-07
 3.195893e-07
 -4.156537e-07
 1.277874e-06
 1.930979e-05
 9.698808e-07
 1.111517e-06
 1.733168e-05
 3.447654e-05
 -6.774180e-07
 1.887631e-05
 8.438019e-07
 -2.854767e-07
 -1.595297e-05
 1.515548e-06
 -1.163584e-06
 -2.734676e-06
 1.852911e-05
 8.347397e-07
 -5.572093e-07
 -4.164647e-06
 -7.711717e-07
 0.000000e+00
 0.000000e+00
 4.241901e-07
 3.244352e-07
 1.772945e-05
 3.526614e-07
 7.848707e-08
 1.717996e-05
 -2.734774e-07
 9.698798e-07
 3.569029e-06
 9.469913e-07
 -7.091998e-07
 1.206275e-06
 1.372145e-07
 -6.175876e-07
 -3.445807e-08
 -1.339596e-06
 1.864120e-06
 3.408767e-06
 5.367808e-08
 -1.184461e-06
 1.803333e-06
 2.307943e-06
 -4.143526e-07
 -1.186340e-06
 1.278350e-06
 4.495858e-06
 1.254975e-06
 -1.850508e-05
 -8.616101e-08
 2.314244e-06
 2.087324e-05
 2.734983e-06
 1.731425e-05
 3.777055e-07
 9.683416e-07
 -1.726224e-06
 -2.166076e-06
 -5.931432e-07
 -1.900303e-05
 -8.524755e-07
 4.424406e-07
 1.959726e-06
 4.644803e-07
 4.836166e-07
 1.171069e-07
 -7.415209e-07
 3.780764e-08
 -4.328510e-07
 3.444162e-05
 0.000000e+00
 0.000000e+00
 6.415312e-07
 1.279610e-06
 3.378162e-07
 -9.076173e-07
 3.116971e-07
 -7.680213e-07
 -2.788103e-06
 -1.715256e-05
 2.062321e-06
 2.119291e-06
 2.035807e-07
 -7.025699e-07
 -1.743776e-05
 2.632020e-07
 4.927051e-07
 1.620763e-06
 1.811545e-05
 -1.753208e-05
 3.218524e-07
 6.818154e-07
 2.520376e-06
 1.437768e-06
 1.655624e-07
 5.843957e-07
 1.846603e-05
 1.385225e-06
 -1.660285e-05
 1.458526e-06
 2.019584e-05
 2.007408e-05
 1.876231e-06
 6.832870e-07
 -1.714661e-05
 -6.343634e-08
 -2.590191e-06
 -1.396336e-06
 5.482549e-07
 -1.317254e-06
 -6.373009e-07
 9.555646e-07
 -5.743552e-07
 8.434794e-07
 1.321636e-06
 -7.403269e-07
 5.883202e-08
 8.289142e-07
 1.531242e-06
 1.558503e-06
 -5.196789e-07
 0.000000e+00
 0.000000e+00
 1.648038e-06
 7.655008e-07
 1.339746e-08
 1.187703e-06
 -1.399855e-06
 -1.331691e-06
 -5.863683e-07
 1.754152e-05
 1.430371e-06
 2.568605e-07
 -1.745006e-05
 -5.350345e-07
 2.224118e-07
 1.510047e-06
 8.159328e-07
 1.306145e-06
 -1.702913e-05
 -9.277709e-07
 -3.676899e-08
 8.072660e-07
 1.955932e-06
 -1.587195e-05
 1.422734e-06
 1.772747e-06
 8.625344e-07
 -5.370735e-07
 2.687442e-06
 3.678050e-06
 1.917066e-06
 4.755682e-07
 9.965311e-07
 -1.753902e-07
 -5.084581e-07
 1.094532e-06
 -1.765126e-05
 3.435425e-05
 2.445691e-07
 -8.627369e-07
 -9.074950e-07
 6.512062e-07
 8.977464e-07
 1.836418e-05
 7.801646e-07
 2.340152e-07
 1.710598e-05
 -5.461504e-07
 -2.255503e-07
 -1.812001e-05
 4.146974e-07
 0.000000e+00
 0.000000e+00
 2.261198e-07
 -1.735145e-05
 1.746170e-06
 1.098651e-06
 -1.802660e-05
 1.734880e-05
 4.909593e-07
 -1.396713e-07
 -1.475097e-06
 -2.262079e-06
 -1.703626e-07
 1.990696e-06
 4.619363e-07
 -5.998344e-07
 5.438834e-07
 1.290066e-06
 -3.152999e-06
 -1.649125e-05
 3.017172e-06
 1.723205e-05
 1.204612e-07
 1.962404e-06
 2.639203e-06
 1.314545e-06
 -5.269873e-08
 2.037185e-06
 2.058503e-06
 -1.635197e-05
 1.565236e-06
 1.168563e-06
 9.157757e-07
 -1.686404e-05
 2.842070e-07
 -1.519113e-07
 1.510167e-06
 -5.552115e-07
 -3.283520e-06
 -1.986483e-05
 1.645246e-07
 2.313844e-06
 1.865951e-06
 9.474362e-07
 7.951013e-07
 8.596300e-07
 -1.183706e-06
 -3.080664e-06
 -2.344075e-06
 7.648660e-07
 1.971566e-05
 0.000000e+00
 0.000000e+00
 1.664269e-05
 -2.027455e-10
 1.871650e-05
 -1.777131e-05
 1.099144e-06
 1.462983e-06
 -8.528583e-07
 -9.990363e-08
 -2.811671e-07
 -5.235666e-07
 1.704127e-05
 1.151718e-07
 5.134430e-07
 4.750110e-07
 1.782135e-05
 2.764216e-07
 -1.753397e-05
 5.450898e-05
 2.660078e-06
 -1.492447e-09
 1.678818e-05
 7.211232e-07
 1.145896e-06
 1.113165e-06
 9.700625e-07
 1.835988e-05
 -1.725747e-05
 1.041753e-06
 2.239436e-06
 1.050304e-06
 1.357349e-06
 1.998110e-06
 1.282879e-06
 1.066361e-06
 5.175412e-07
 -7.817802e-07
 1.608843e-05
 -3.653273e-07
 3.633285e-05
 7.032147e-07
 5.808524e-07
 3.075777e-07
 1.358710e-06
 -1.712085e-05
 -4.505100e-07
 1.021131e-06
 1.750133e-05
 1.759025e-05
 2.395235e-07
 0.000000e+00
 0.000000e+00
 -3.758028e-07
 -8.619216e-07
 -1.017120e-06
 -1.218803e-06
 1.422652e-06
 5.700215e-07
 2.122207e-07
 2.319810e-07
 4.407069e-07
 6.778680e-07
 -1.636814e-06
 -1.552125e-06
 8.422093e-07
 1.186144e-06
 3.011311e-07
 -1.001907e-06
 3.034260e-06
 1.857128e-06
 -2.135350e-05
 9.190083e-07
 1.122079e-06
 -5.318720e-07
 5.822849e-07
 7.830754e-07
 1.406856e-06
 1.124291e-06
 -3.779542e-07
 1.212448e-06
 7.194723e-07
 4.192823e-07
 4.004012e-07
 -1.670186e-05
 -1.626884e-05
 1.056033e-06
 -1.668315e-05
 1.222173e-06
 3.958207e-07
 4.390813e-07
 1.011651e-07
 -1.145477e-06
 -3.956071e-07
 -1.256634e-06
 -9.686827e-07
 -1.709550e-05
 1.917713e-06
 1.769167e-06
 -1.592462e-05
 -7.974393e-07
 -1.308483e-06
 0.000000e+00
 0.000000e+00
 -4.521788e-07
 -4.968681e-07
 -4.187956e-07
 -2.752624e-07
 1.246103e-07
 2.367357e-07
 1.911703e-07
 4.166746e-07
 1.703682e-06
 1.358146e-06
 -9.603138e-07
 1.632050e-05
 -2.011820e-07
 1.483849e-07
 1.889859e-07
 6.778653e-07
 2.326773e-06
 1.298220e-07
 -5.885386e-07
 1.890189e-05
 6.778767e-07
 5.739568e-07
 4.194956e-07
 3.044056e-07
 -5.007906e-07
 5.197776e-07
 -1.619357e-05
 1.976682e-06
 -4.792469e-07
 -7.469718e-07
 -4.247116e-07
 -3.936717e-07
 3.303366e-06
 2.024097e-06
 4.629769e-07
 1.826830e-06
 1.676951e-06
 3.634714e-07
 -6.304563e-07
 -3.287001e-07
 -1.784642e-05
 -1.590202e-06
 -1.138176e-06
 7.228742e-07
 1.782448e-06
 5.420058e-07
 2.158473e-06
 1.494763e-06
 -7.557509e-07
 0.000000e+00
 0.000000e+00
 -1.628290e-06
 -6.778108e-07
 2.266787e-07
 -2.004215e-07
 -1.171527e-07
 -5.981359e-08
 -8.695892e-08
 -3.347240e-08
 1.060749e-06
 -1.824118e-05
 -1.708860e-05
 7.628845e-07
 -1.237155e-06
 -3.829732e-07
 -9.357185e-07
 7.118051e-07
 1.421673e-06
 -1.691939e-05
 1.123435e-06
 4.992273e-07
 -5.511024e-07
 1.650528e-06
 6.284260e-07
 -1.034780e-06
 1.469213e-06
 1.764393e-05
 -3.979947e-07
 1.765911e-06
 -1.563206e-05
 1.758227e-05
 -1.317627e-06
 -1.562454e-06
 8.552508e-07
 -1.409176e-05
 1.322878e-06
 -3.895436e-07
 -3.891826e-07
 -1.735379e-05
 6.344618e-07
 -1.305381e-07
 4.308619e-07
 1.472262e-06
 1.753858e-05
 -1.193920e-06
 -9.495438e-07
 7.370147e-07
 8.414906e-07
 -1.718718e-05
 1.144524e-07
 0.000000e+00
 0.000000e+00
 -2.867984e-07
 1.609822e-05
 -8.640815e-07
 -4.814126e-07
 -2.615670e-07
 -2.343470e-07
 -4.435938e-07
 -7.754035e-07
 -2.080949e-06
 -1.767675e-05
 2.006639e-05
 1.715052e-06
 1.358551e-08
 -1.196292e-06
 2.222680e-07
 1.952866e-05
 -4.385143e-07
 -4.589258e-07
 1.448556e-06
 3.031366e-07
 1.705349e-07
 5.396302e-07
 -1.635432e-05
 2.426825e-06
 1.892453e-05
 -1.816496e-05
 -1.389126e-06
 -4.333039e-07
 1.326877e-06
 -1.588755e-05
 -1.107331e-06
 -1.442103e-06
 1.700552e-05
 1.631321e-06
 -1.427458e-05
 -1.975071e-08
 -4.119321e-06
 -8.780737e-07
 3.741085e-06
 1.860651e-06
 9.025927e-07
 1.917217e-06
 1.008082e-06
 -8.713146e-07
 1.787354e-05
 1.631921e-05
 -2.420158e-06
 -5.121128e-07
 1.186194e-06
 0.000000e+00
 0.000000e+00
 -1.561224e-05
 -4.889363e-07
 -2.584535e-06
 -6.169393e-07
 -2.145391e-07
 -1.643608e-07
 -5.509488e-07
 -2.023597e-06
 -1.044617e-07
 2.032941e-05
 1.469244e-06
 -1.032373e-06
 2.489149e-07
 3.020919e-07
 1.821157e-05
 -2.851013e-07
 -1.896614e-05
 -4.534374e-08
 2.279319e-07
 -1.012356e-06
 5.283647e-09
 -5.811598e-07
 1.167654e-06
 3.828914e-06
 -1.701950e-05
 -9.604897e-07
 7.737959e-07
 -8.689126e-09
 -1.897119e-07
 7.685561e-07
 1.773567e-06
 1.059865e-06
 1.743101e-05
 -1.697084e-06
 2.488690e-07
 -1.621307e-05
 7.511117e-08
 3.558422e-05
 2.070935e-05
 7.495883e-07
 -6.125659e-07
 2.409219e-06
 2.818851e-06
 1.860754e-06
 -1.694684e-06
 -2.098098e-05
 -3.484036e-06
 -1.130228e-06
 4.913132e-07
 0.000000e+00
 0.000000e+00
 3.610742e-07
 -1.751766e-05
 -5.240703e-07
 1.862538e-07
 2.120005e-08
 3.253922e-07
 9.451624e-08
 -1.853143e-06
 1.592725e-05
 -1.789239e-05
 -1.717366e-05
 1.146560e-06
 6.271364e-07
 1.171216e-06
 -2.294431e-07
 -2.811502e-06
 -7.733468e-07
 1.421523e-06
 7.922063e-07
 -6.060145e-07
 1.762024e-05
 9.132098e-07
 1.810390e-05
 3.173832e-07
 1.668042e-06
 1.186800e-06
 -5.178016e-07
 2.251346e-07
 5.692758e-07
 8.440702e-07
 9.207987e-07
 1.222707e-06
 1.042502e-07
 -3.486370e-07
 -9.604644e-07
 -3.714616e-07
 2.028654e-06
 1.149565e-06
 -1.689850e-06
 -3.648535e-05
 1.496054e-07
 1.112143e-06
 -1.481849e-05
 -1.511928e-05
 -1.738237e-05
 1.612727e-05
 -9.284149e-07
 1.522406e-05
 -6.523860e-07
 0.000000e+00
 0.000000e+00
 7.749369e-07
 4.636034e-07
 1.782191e-05
 -1.463014e-06
 -1.331363e-07
 1.179099e-06
 2.884648e-06
 5.087205e-07
 1.351370e-05
 1.590888e-05
 1.897295e-05
 7.020327e-07
 5.808928e-07
 8.139777e-07
 -5.443018e-09
 -3.349851e-06
 -1.085715e-06
 6.473613e-07
 2.437546e-06
 2.330517e-06
 1.711984e-05
 -5.614642e-07
 -2.133678e-08
 -1.158574e-07
 -5.249453e-08
 -1.795383e-05
 2.571726e-07
 4.620288e-07
 1.642181e-06
 1.743592e-06
 9.798107e-07
 -2.699906e-07
 -4.899489e-07
 8.983638e-07
 -1.754293e-05
 -1.408675e-07
 9.326891e-07
 1.753252e-05
 -2.548026e-06
 -2.298804e-06
 1.768754e-06
 6.668472e-07
 4.724435e-07
 -1.594330e-05
 -1.468181e-05
 -1.444323e-05
 -1.540914e-07
 -1.199970e-06
 1.577192e-05
 0.000000e+00
 0.000000e+00
 2.818316e-07
 -1.557630e-05
 4.750274e-07
 -1.460198e-06
 1.677490e-05
 -2.628970e-07
 4.353436e-07
 -3.355377e-05
 5.848935e-07
 1.602104e-05
 -1.945551e-05
 -2.243256e-06
 3.807845e-07
 1.447611e-06
 2.723968e-06
 -5.841232e-07
 3.256226e-05
 -2.525591e-07
 1.861626e-05
 -1.552405e-05
 -7.943189e-07
 -1.766163e-06
 -3.079919e-07
 -8.655256e-07
 -1.845987e-05
 2.575234e-07
 1.637065e-06
 6.308033e-07
 -9.691279e-07
 -1.774614e-05
 -1.769546e-05
 -1.685350e-05
 1.000999e-06
 -7.540355e-07
 -1.730197e-05
 2.301979e-06
 2.135327e-06
 1.845009e-07
 -2.365325e-06
 -1.356735e-06
 1.491493e-05
 4.137746e-08
 2.012032e-06
 -8.705369e-08
 6.522268e-07
 2.243005e-06
 -1.534364e-05
 9.848694e-07
 -2.152888e-07
 0.000000e+00
 0.000000e+00
 1.649405e-05
 6.896201e-08
 2.391982e-06
 2.214227e-07
 -1.651376e-06
 -2.075831e-06
 -1.612106e-06
 1.771384e-06
 3.436986e-06
 -1.662945e-06
 -2.837391e-06
 2.121889e-06
 1.842163e-05
 -5.163999e-07
 1.345826e-06
 -3.461719e-05
 -2.047209e-06
 -2.223340e-06
 5.673734e-07
 1.824024e-06
 1.488246e-06
 1.608239e-05
 -2.417805e-06
 -2.948247e-06
 9.004786e-09
 1.926424e-06
 -3.290304e-07
 2.540809e-06
 -3.040248e-07
 1.481306e-05
 3.576964e-07
 1.951924e-05
 2.696654e-06
 -1.857644e-06
 -7.034676e-07
 2.687831e-06
 3.832010e-06
 1.122347e-06
 -2.226130e-06
 -7.103359e-07
 2.088565e-07
 3.382514e-05
 -6.316200e-07
 -1.748863e-05
 3.372628e-07
 -3.259327e-07
 1.367713e-06
 1.330401e-06
 -5.741722e-07
 0.000000e+00
 0.000000e+00
 -6.922067e-07
 -2.343692e-06
 -4.955746e-08
 -1.897692e-05
 -1.485849e-06
 -2.327303e-07
 -5.379054e-07
 1.019756e-07
 -1.688032e-05
 8.509229e-08
 -1.642079e-07
 1.936571e-05
 -1.748340e-05
 -2.315593e-06
 -1.547265e-06
 -1.663714e-05
 2.060780e-05
 1.787819e-05
 1.749704e-05
 1.389981e-06
 -1.635800e-05
 -6.845433e-07
 -7.041877e-07
 1.647228e-05
 1.604862e-05
 -2.852102e-07
 -1.398209e-07
 1.729170e-05
 -3.470306e-05
 -1.316921e-06
 -1.669090e-07
 1.357463e-06
 -4.871705e-07
 -1.751853e-05
 1.725279e-05
 -2.056112e-06
 -1.604940e-07
 -3.193021e-05
 3.396761e-06
 1.947273e-05
 1.795201e-05
 -2.073891e-06
 -4.388399e-06
 3.132578e-07
 3.057500e-06
 -9.712784e-07
 -1.791553e-06
 -1.871278e-05
 2.933836e-08
 0.000000e+00
 0.000000e+00
 -5.099135e-06
 -2.095133e-05
 2.449410e-09
 -1.712547e-05
 1.764296e-05
 -3.648033e-07
 -3.431944e-07
 -9.113031e-07
 1.237492e-07
 1.538530e-06
 -3.457157e-07
 -1.185740e-06
 -1.857855e-05
 6.728627e-07
 -3.373105e-07
 1.958974e-06
 3.519890e-06
 3.493007e-07
 -1.899407e-06
 -2.587149e-06
 -1.719356e-05
 1.686816e-06
 7.708647e-07
 -1.713457e-05
 -1.629542e-06
 -1.637336e-06
 -2.128494e-07
 -2.318087e-06
 -1.506126e-06
 2.577825e-06
 1.836370e-05
 5.372599e-07
 -2.117950e-07
 9.292400e-07
 1.165809e-06
 -1.087762e-06
 3.398061e-05
 1.959587e-05
 4.157995e-06
 -1.663687e-05
 -1.869230e-05
 -2.265925e-06
 -2.020735e-06
 -1.686616e-06
 -1.939517e-05
 -3.548509e-05
 -2.217260e-07
 3.018747e-07
 1.902558e-05
 0.000000e+00
 0.000000e+00
 -4.715916e-06
 1.496547e-05
 1.633076e-05
 -1.724682e-05
 1.175285e-06
 -1.147698e-06
 7.083973e-07
 -3.296450e-07
 -5.611060e-07