<VTKFile type="UnstructuredGrid"  version="0.1"   >
<UnstructuredGrid>  
<Piece  NumberOfPoints="     2601"  NumberOfCells="     5000">  
<Points>  
<DataArray  type="Float64"  NumberOfComponents="3"  format="ascii">  
 0.000000 0.000000 0.000000 
 0.020000 0.000000 0.000000 
 0.040000 0.000000 0.000000 
 0.060000 0.000000 0.000000 
 0.080000 0.000000 0.000000 
 0.100000 0.000000 0.000000 
 0.120000 0.000000 0.000000 
 0.140000 0.000000 0.000000 
 0.160000 0.000000 0.000000 
 0.180000 0.000000 0.000000 
 0.200000 0.000000 0.000000 
 0.220000 0.000000 0.000000 
 0.240000 0.000000 0.000000 
 0.260000 0.000000 0.000000 
 0.280000 0.000000 0.000000 
 0.300000 0.000000 0.000000 
 0.320000 0.000000 0.000000 
 0.340000 0.000000 0.000000 
 0.360000 0.000000 0.000000 
 0.380000 0.000000 0.000000 
 0.400000 0.000000 0.000000 
 0.420000 0.000000 0.000000 
 0.440000 0.000000 0.000000 
 0.460000 0.000000 0.000000 
 0.480000 0.000000 0.000000 
 0.500000 0.000000 0.000000 
 0.520000 0.000000 0.000000 
 0.540000 0.000000 0.000000 
 0.560000 0.000000 0.000000 
 0.580000 0.000000 0.000000 
 0.600000 0.000000 0.000000 
 0.620000 0.000000 0.000000 
 0.640000 0.000000 0.000000 
 0.660000 0.000000 0.000000 
 0.680000 0.000000 0.000000 
 0.700000 0.000000 0.000000 
 0.720000 0.000000 0.000000 
 0.740000 0.000000 0.000000 
 0.760000 0.000000 0.000000 
 0.780000 0.000000 0.000000 
 0.800000 0.000000 0.000000 
 0.820000 0.000000 0.000000 
 0.840000 0.000000 0.000000 
 0.860000 0.000000 0.000000 
 0.880000 0.000000 0.000000 
 0.900000 0.000000 0.000000 
 0.920000 0.000000 0.000000 
 0.940000 0.000000 0.000000 
 0.960000 0.000000 0.000000 
 0.980000 0.000000 0.000000 
 1.000000 0.000000 0.000000 
 0.000000 0.020000 0.000000 
 0.020000 0.020000 0.000000 
 0.040000 0.020000 0.000000 
 0.060000 0.020000 0.000000 
 0.080000 0.020000 0.000000 
 0.100000 0.020000 0.000000 
 0.120000 0.020000 0.000000 
 0.140000 0.020000 0.000000 
 0.160000 0.020000 0.000000 
 0.180000 0.020000 0.000000 
 0.200000 0.020000 0.000000 
 0.220000 0.020000 0.000000 
 0.240000 0.020000 0.000000 
 0.260000 0.020000 0.000000 
 0.280000 0.020000 0.000000 
 0.300000 0.020000 0.000000 
 0.320000 0.020000 0.000000 
 0.340000 0.020000 0.000000 
 0.360000 0.020000 0.000000 
 0.380000 0.020000 0.000000 
 0.400000 0.020000 0.000000 
 0.420000 0.020000 0.000000 
 0.440000 0.020000 0.000000 
 0.460000 0.020000 0.000000 
 0.480000 0.020000 0.000000 
 0.500000 0.020000 0.000000 
 0.520000 0.020000 0.000000 
 0.540000 0.020000 0.000000 
 0.560000 0.020000 0.000000 
 0.580000 0.020000 0.000000 
 0.600000 0.020000 0.000000 
 0.620000 0.020000 0.000000 
 0.640000 0.020000 0.000000 
 0.660000 0.020000 0.000000 
 0.680000 0.020000 0.000000 
 0.700000 0.020000 0.000000 
 0.720000 0.020000 0.000000 
 0.740000 0.020000 0.000000 
 0.760000 0.020000 0.000000 
 0.780000 0.020000 0.000000 
 0.800000 0.020000 0.000000 
 0.820000 0.020000 0.000000 
 0.840000 0.020000 0.000000 
 0.860000 0.020000 0.000000 
 0.880000 0.020000 0.000000 
 0.900000 0.020000 0.000000 
 0.920000 0.020000 0.000000 
 0.940000 0.020000 0.000000 
 0.960000 0.020000 0.000000 
 0.980000 0.020000 0.000000 
 1.000000 0.020000 0.000000 
 0.000000 0.040000 0.000000 
 0.020000 0.040000 0.000000 
 0.040000 0.040000 0.000000 
 0.060000 0.040000 0.000000 
 0.080000 0.040000 0.000000 
 0.100000 0.040000 0.000000 
 0.120000 0.040000 0.000000 
 0.140000 0.040000 0.000000 
 0.160000 0.040000 0.000000 
 0.180000 0.040000 0.000000 
 0.200000 0.040000 0.000000 
 0.220000 0.040000 0.000000 
 0.240000 0.040000 0.000000 
 0.260000 0.040000 0.000000 
 0.280000 0.040000 0.000000 
 0.300000 0.040000 0.000000 
 0.320000 0.040000 0.000000 
 0.340000 0.040000 0.000000 
 0.360000 0.040000 0.000000 
 0.380000 0.040000 0.000000 
 0.400000 0.040000 0.000000 
 0.420000 0.040000 0.000000 
 0.440000 0.040000 0.000000 
 0.460000 0.040000 0.000000 
 0.480000 0.040000 0.000000 
 0.500000 0.040000 0.000000 
 0.520000 0.040000 0.000000 
 0.540000 0.040000 0.000000 
 0.560000 0.040000 0.000000 
 0.580000 0.040000 0.000000 
 0.600000 0.040000 0.000000 
 0.620000 0.040000 0.000000 
 0.640000 0.040000 0.000000 
 0.660000 0.040000 0.000000 
 0.680000 0.040000 0.000000 
 0.700000 0.040000 0.000000 
 0.720000 0.040000 0.000000 
 0.740000 0.040000 0.000000 
 0.760000 0.040000 0.000000 
 0.780000 0.040000 0.000000 
 0.800000 0.040000 0.000000 
 0.820000 0.040000 0.000000 
 0.840000 0.040000 0.000000 
 0.860000 0.040000 0.000000 
 0.880000 0.040000 0.000000 
 0.900000 0.040000 0.000000 
 0.920000 0.040000 0.000000 
 0.940000 0.040000 0.000000 
 0.960000 0.040000 0.000000 
 0.980000 0.040000 0.000000 
 1.000000 0.040000 0.000000 
 0.000000 0.060000 0.000000 
 0.020000 0.060000 0.000000 
 0.040000 0.060000 0.000000 
 0.060000 0.060000 0.000000 
 0.080000 0.060000 0.000000 
 0.100000 0.060000 0.000000 
 0.120000 0.060000 0.000000 
 0.140000 0.060000 0.000000 
 0.160000 0.060000 0.000000 
 0.180000 0.060000 0.000000 
 0.200000 0.060000 0.000000 
 0.220000 0.060000 0.000000 
 0.240000 0.060000 0.000000 
 0.260000 0.060000 0.000000 
 0.280000 0.060000 0.000000 
 0.300000 0.060000 0.000000 
 0.320000 0.060000 0.000000 
 0.340000 0.060000 0.000000 
 0.360000 0.060000 0.000000 
 0.380000 0.060000 0.000000 
 0.400000 0.060000 0.000000 
 0.420000 0.060000 0.000000 
 0.440000 0.060000 0.000000 
 0.460000 0.060000 0.000000 
 0.480000 0.060000 0.000000 
 0.500000 0.060000 0.000000 
 0.520000 0.060000 0.000000 
 0.540000 0.060000 0.000000 
 0.560000 0.060000 0.000000 
 0.580000 0.060000 0.000000 
 0.600000 0.060000 0.000000 
 0.620000 0.060000 0.000000 
 0.640000 0.060000 0.000000 
 0.660000 0.060000 0.000000 
 0.680000 0.060000 0.000000 
 0.700000 0.060000 0.000000 
 0.720000 0.060000 0.000000 
 0.740000 0.060000 0.000000 
 0.760000 0.060000 0.000000 
 0.780000 0.060000 0.000000 
 0.800000 0.060000 0.000000 
 0.820000 0.060000 0.000000 
 0.840000 0.060000 0.000000 
 0.860000 0.060000 0.000000 
 0.880000 0.060000 0.000000 
 0.900000 0.060000 0.000000 
 0.920000 0.060000 0.000000 
 0.940000 0.060000 0.000000 
 0.960000 0.060000 0.000000 
 0.980000 0.060000 0.000000 
 1.000000 0.060000 0.000000 
 0.000000 0.080000 0.000000 
 0.020000 0.080000 0.000000 
 0.040000 0.080000 0.000000 
 0.060000 0.080000 0.000000 
 0.080000 0.080000 0.000000 
 0.100000 0.080000 0.000000 
 0.120000 0.080000 0.000000 
 0.140000 0.080000 0.000000 
 0.160000 0.080000 0.000000 
 0.180000 0.080000 0.000000 
 0.200000 0.080000 0.000000 
 0.220000 0.080000 0.000000 
 0.240000 0.080000 0.000000 
 0.260000 0.080000 0.000000 
 0.280000 0.080000 0.000000 
 0.300000 0.080000 0.000000 
 0.320000 0.080000 0.000000 
 0.340000 0.080000 0.000000 
 0.360000 0.080000 0.000000 
 0.380000 0.080000 0.000000 
 0.400000 0.080000 0.000000 
 0.420000 0.080000 0.000000 
 0.440000 0.080000 0.000000 
 0.460000 0.080000 0.000000 
 0.480000 0.080000 0.000000 
 0.500000 0.080000 0.000000 
 0.520000 0.080000 0.000000 
 0.540000 0.080000 0.000000 
 0.560000 0.080000 0.000000 
 0.580000 0.080000 0.000000 
 0.600000 0.080000 0.000000 
 0.620000 0.080000 0.000000 
 0.640000 0.080000 0.000000 
 0.660000 0.080000 0.000000 
 0.680000 0.080000 0.000000 
 0.700000 0.080000 0.000000 
 0.720000 0.080000 0.000000 
 0.740000 0.080000 0.000000 
 0.760000 0.080000 0.000000 
 0.780000 0.080000 0.000000 
 0.800000 0.080000 0.000000 
 0.820000 0.080000 0.000000 
 0.840000 0.080000 0.000000 
 0.860000 0.080000 0.000000 
 0.880000 0.080000 0.000000 
 0.900000 0.080000 0.000000 
 0.920000 0.080000 0.000000 
 0.940000 0.080000 0.000000 
 0.960000 0.080000 0.000000 
 0.980000 0.080000 0.000000 
 1.000000 0.080000 0.000000 
 0.000000 0.100000 0.000000 
 0.020000 0.100000 0.000000 
 0.040000 0.100000 0.000000 
 0.060000 0.100000 0.000000 
 0.080000 0.100000 0.000000 
 0.100000 0.100000 0.000000 
 0.120000 0.100000 0.000000 
 0.140000 0.100000 0.000000 
 0.160000 0.100000 0.000000 
 0.180000 0.100000 0.000000 
 0.200000 0.100000 0.000000 
 0.220000 0.100000 0.000000 
 0.240000 0.100000 0.000000 
 0.260000 0.100000 0.000000 
 0.280000 0.100000 0.000000 
 0.300000 0.100000 0.000000 
 0.320000 0.100000 0.000000 
 0.340000 0.100000 0.000000 
 0.360000 0.100000 0.000000 
 0.380000 0.100000 0.000000 
 0.400000 0.100000 0.000000 
 0.420000 0.100000 0.000000 
 0.440000 0.100000 0.000000 
 0.460000 0.100000 0.000000 
 0.480000 0.100000 0.000000 
 0.500000 0.100000 0.000000 
 0.520000 0.100000 0.000000 
 0.540000 0.100000 0.000000 
 0.560000 0.100000 0.000000 
 0.580000 0.100000 0.000000 
 0.600000 0.100000 0.000000 
 0.620000 0.100000 0.000000 
 0.640000 0.100000 0.000000 
 0.660000 0.100000 0.000000 
 0.680000 0.100000 0.000000 
 0.700000 0.100000 0.000000 
 0.720000 0.100000 0.000000 
 0.740000 0.100000 0.000000 
 0.760000 0.100000 0.000000 
 0.780000 0.100000 0.000000 
 0.800000 0.100000 0.000000 
 0.820000 0.100000 0.000000 
 0.840000 0.100000 0.000000 
 0.860000 0.100000 0.000000 
 0.880000 0.100000 0.000000 
 0.900000 0.100000 0.000000 
 0.920000 0.100000 0.000000 
 0.940000 0.100000 0.000000 
 0.960000 0.100000 0.000000 
 0.980000 0.100000 0.000000 
 1.000000 0.100000 0.000000 
 0.000000 0.120000 0.000000 
 0.020000 0.120000 0.000000 
 0.040000 0.120000 0.000000 
 0.060000 0.120000 0.000000 
 0.080000 0.120000 0.000000 
 0.100000 0.120000 0.000000 
 0.120000 0.120000 0.000000 
 0.140000 0.120000 0.000000 
 0.160000 0.120000 0.000000 
 0.180000 0.120000 0.000000 
 0.200000 0.120000 0.000000 
 0.220000 0.120000 0.000000 
 0.240000 0.120000 0.000000 
 0.260000 0.120000 0.000000 
 0.280000 0.120000 0.000000 
 0.300000 0.120000 0.000000 
 0.320000 0.120000 0.000000 
 0.340000 0.120000 0.000000 
 0.360000 0.120000 0.000000 
 0.380000 0.120000 0.000000 
 0.400000 0.120000 0.000000 
 0.420000 0.120000 0.000000 
 0.440000 0.120000 0.000000 
 0.460000 0.120000 0.000000 
 0.480000 0.120000 0.000000 
 0.500000 0.120000 0.000000 
 0.520000 0.120000 0.000000 
 0.540000 0.120000 0.000000 
 0.560000 0.120000 0.000000 
 0.580000 0.120000 0.000000 
 0.600000 0.120000 0.000000 
[...]
<PointData  Scalars="U"> 
<DataArray  type="Float64"  Name="U"  format="ascii"> 
 0.000000e+00
 0.000000e+00
 0.000000e+00
 0.000000e+00
 0.000000e+00
 0.000000e+00
 0.000000e+00
 0.000000e+00
 0.000000e+00
 0.000000e+00
 0.000000e+00
 0.000000e+00
 0.000000e+00
 0.000000e+00
 0.000000e+00
 0.000000e+00
 0.000000e+00
 0.000000e+00
 0.000000e+00
 0.000000e+00
 0.000000e+00
 0.000000e+00
 0.000000e+00
 0.000000e+00
 0.000000e+00
 0.000000e+00
 0.000000e+00
 0.000000e+00
 0.000000e+00
 0.000000e+00
 0.000000e+00
 0.000000e+00
 0.000000e+00
 0.000000e+00
 0.000000e+00
 0.000000e+00
 0.000000e+00
 0.000000e+00
 0.000000e+00
 0.000000e+00
 0.000000e+00
 0.000000e+00
 0.000000e+00
 0.000000e+00
 0.000000e+00
 0.000000e+00
 0.000000e+00
 0.000000e+00
 0.000000e+00
 0.000000e+00
 0.000000e+00
 0.000000e+00
 4.375334e-10
 2.115554e-10
 -1.500467e-09
 -5.869102e-09
 -1.454093e-08
 -2.919796e-08
 -4.905112e-08
 -6.460432e-08
 -5.410218e-08
 -2.152141e-09
 6.911129e-08
 1.145062e-07
 1.161323e-07
 9.044331e-08
 5.874839e-08
 3.287447e-08
 1.658282e-08
 8.672602e-09
 5.637954e-09
 4.171883e-09
 2.653554e-09
 1.303142e-09
 1.477915e-09
 4.679305e-09
 1.074841e-08
 1.399058e-08
 2.779699e-09
 -2.474894e-08
 -4.832456e-08
 -5.092915e-08
 -3.861062e-08
 -2.374442e-08
 -9.707959e-09
 1.952432e-08
 1.526018e-07
 1.221423e-06
 -4.754974e-08
 -9.827773e-07
 -3.934860e-07
 -4.406093e-08
 1.496014e-07
 7.452956e-08
 2.321269e-08
 -2.446609e-08
 -1.853339e-07
 -2.366795e-07
 -1.744886e-05
 2.296060e-07
 1.162099e-07
 0.000000e+00
 0.000000e+00
 1.513343e-09
 1.851075e-09
 -4.347986e-10
 -7.491043e-09
 -2.281747e-08
 -5.178942e-08
 -9.961590e-08
 -1.555603e-07
 -1.576162e-07
 -2.899268e-08
 1.705076e-07
 2.797716e-07
 2.595559e-07
 1.848535e-07
 1.103736e-07
 5.534879e-08
 2.439583e-08
 1.253593e-08
 1.002939e-08
 8.727661e-09
 5.331583e-09
 1.116986e-09
 -2.625627e-10
 5.561771e-09
 2.269627e-08
 4.394190e-08
 2.723523e-08
 -5.425537e-08
 -1.230131e-07
 -1.174709e-07
 -7.794537e-08
 -4.426578e-08
 -2.660553e-08
 -2.659088e-08
 -4.811994e-08
 -2.601566e-08
 -1.750623e-05
 -1.879704e-07
 -1.299957e-06
 -4.123683e-08
 7.258903e-07
 7.829691e-09
 4.212571e-08
 8.766739e-08
 -2.336321e-07
 -9.819017e-07
 -3.557956e-08
 1.341997e-06
 2.569750e-07
 0.000000e+00
 0.000000e+00
 3.723872e-09
 6.005381e-09
 5.178643e-09
 -1.196636e-09
 -1.768606e-08
 -5.405593e-08
 -1.317612e-07
 -2.918116e-07
 -4.216989e-07
 -1.523394e-07
 3.932364e-07
 5.976316e-07
 4.481461e-07
 2.729224e-07
 1.408613e-07
 5.198383e-08
 1.227225e-08
 7.426663e-09
 1.412764e-08
 1.619989e-08
 9.203103e-09
 -1.848462e-09
 -9.089653e-09
 -5.653315e-09
 2.225996e-08
 1.108606e-07
 1.439191e-07
 -1.009389e-07
 -2.976187e-07
 -2.129678e-07
 -1.054429e-07
 -4.810521e-08
 -2.595213e-08
 -5.371831e-08
 -2.130816e-07
 -8.639494e-07
 4.189315e-08
 1.379248e-06
 2.786019e-07
 1.752482e-05
 -1.529014e-07
 -1.223991e-06
 -4.205689e-09
 7.250915e-07
 -1.168012e-07
 -3.511102e-07
 -1.257007e-07
 1.711168e-07
 1.431538e-07
 0.000000e+00
 0.000000e+00
 7.348060e-09
 1.315922e-08
 1.602977e-08
 1.443873e-08
 5.528734e-09
 -1.871432e-08
 -8.440988e-08
 -2.895872e-07
 -1.500160e-06
 -1.218796e-06
 1.045487e-06
 1.354263e-06
 5.754151e-07
 3.219347e-07
 1.299216e-07
 -5.715819e-09
 -3.608053e-08
 -7.627183e-09
 2.495403e-08
 3.447660e-08
 1.754270e-08
 -9.162012e-09
 -2.785466e-08
 -3.683382e-08
 -3.523838e-08
 6.186855e-08
 1.114562e-06
 -1.133814e-07
 -9.188825e-07
 -2.440565e-07
 -8.115876e-08
 -2.235573e-08
 1.567152e-08
 2.519985e-08
 -5.361336e-08
 -1.566208e-07
 7.760971e-08
 5.284265e-07
 1.169742e-06
 1.773956e-07
 -1.146663e-06
 -5.558477e-08
 1.755162e-05
 -1.700754e-07
 -3.779573e-07
 -3.212811e-07
 -1.922959e-07
 -8.802007e-08
 -2.581726e-08
 0.000000e+00
 0.000000e+00
 1.254145e-08
 2.325768e-08
 3.117687e-08
 3.671522e-08
 4.179668e-08
 4.977192e-08
 6.602489e-08
 1.040495e-07
 1.183525e-07
 1.758382e-05
 1.762695e-05
 2.580420e-07
 3.772836e-07
 3.731990e-07
 6.657021e-08
 -1.942759e-07
 -1.402160e-07
 -2.159819e-08
 6.246458e-08
 8.328557e-08
 3.580801e-08
 -2.808588e-08
 -5.817649e-08
 -6.845756e-08
 -1.428546e-07
 -3.592780e-07
 -4.429101e-07
 -1.762406e-05
 1.129408e-07
 6.211531e-08
 1.256658e-08
 1.293628e-08
 7.433855e-08
 1.973956e-07
 2.457505e-07
 4.301301e-08
 -1.921702e-08
 2.492879e-07
 4.303685e-07
 2.489718e-07
 1.376853e-07
 9.238833e-07
 1.154999e-06
 -1.426472e-06
 -1.157956e-06
 -2.755338e-07
 -2.375760e-07
 -3.000784e-07
 -1.519796e-07
 0.000000e+00
 0.000000e+00
 1.971233e-08
 3.639743e-08
 4.896353e-08
 5.967722e-08
 7.542449e-08
 1.107705e-07
 1.993841e-07
 4.428460e-07
 1.282298e-06
 1.052550e-06
 -1.134075e-06
 -1.328870e-06
 5.552346e-08
 1.316293e-06
 4.146148e-08
 -8.689990e-07
 -2.273781e-07
 -4.647161e-09
 1.666439e-07
 2.139483e-07
 6.978091e-08
 -9.319590e-08
 -1.222810e-07
 -3.762167e-08
 -8.183106e-08
 -6.652841e-07
 -2.592998e-06
 -2.942957e-07
 2.033309e-06
 3.673026e-07
 4.735778e-08
 -1.456133e-08
 7.690284e-08
 2.868634e-07
 1.380341e-06
 1.576872e-07
 -6.211437e-07
 9.109908e-08
 2.368417e-07
 1.910761e-07
 1.400804e-07
 1.090651e-07
 -1.186972e-07
 -1.783808e-05
 -2.066295e-07
 9.833552e-07
 -1.332948e-07
 -8.874295e-07
 -1.901398e-07
 0.000000e+00
 0.000000e+00
 3.025159e-08
 5.422706e-08
 6.933628e-08
 7.871937e-08
 9.194407e-08
 1.265294e-07
 2.112042e-07
 3.839497e-07
 5.826134e-07
 4.553589e-07
 -2.651652e-08
 -2.751570e-07
 -1.724458e-07
 -1.465822e-08
 -1.743432e-05
 1.345013e-08
 -7.171261e-08
 -2.838791e-09
 3.972056e-07
 5.981437e-07
 1.120710e-07
 -3.322507e-07
 -3.022739e-07
 -5.175380e-08
 1.048165e-06
 -3.000847e-07
 -1.264648e-06
 1.709202e-05
 7.563620e-08
 8.976764e-08
 -1.186220e-07
 -2.044072e-07
 9.331594e-09
 1.082434e-07
 2.298114e-08
 -1.726162e-05
 4.085407e-07
 3.273391e-07
 2.329897e-07
 1.291023e-07
 4.930890e-10
 -2.536286e-07
 -1.045094e-06
 -3.079561e-07
 8.587971e-07
 -1.737579e-07
 -1.747263e-05
 2.072673e-07
 1.119129e-07
 0.000000e+00
 0.000000e+00
 4.773720e-08
 8.192800e-08
 9.647500e-08
 9.518311e-08
 8.896175e-08
 9.471044e-08
 1.323013e-07
 2.070984e-07
 2.899614e-07
 3.035013e-07
 1.870644e-07
 9.721380e-09
 -2.058760e-07
 -8.520567e-07
 5.250718e-08
 1.347344e-06
 1.798249e-07
 -9.268490e-07
 5.814797e-07
 2.454612e-06
 1.002875e-07
 -1.244458e-06
 -5.813738e-07
 -3.195657e-07
 -1.377391e-07
 -1.739526e-05
 7.523061e-07
 -7.643420e-08
 -1.279930e-06
 -2.245115e-07
 -2.379384e-07
 -1.279789e-06
 -2.657060e-08
 5.441116e-07
 -1.885622e-06
 1.055972e-07
 2.281435e-06
 5.790617e-07
 2.362167e-07
 8.055839e-08
 -5.156160e-08
 -2.268079e-07
 -3.930195e-07
 -3.195110e-07
 -3.985570e-07
 -2.135552e-06
 -5.883857e-09
 2.176345e-06
 4.285413e-07
 0.000000e+00
 0.000000e+00
 8.016719e-08
 1.311297e-07
 1.405291e-07
 1.175179e-07
 7.515673e-08
 2.849093e-08
 1.077030e-08
 1.192237e-08
 6.484198e-08
 3.157768e-07
 4.564410e-07
 2.727214e-07
 2.193741e-08
 -1.290514e-07
 6.534003e-08
 3.418364e-07
 3.704285e-07
 3.672066e-07
 1.793108e-05
 1.242905e-06
 -1.777270e-05
 -1.201147e-06
 -5.349856e-07
 -4.371927e-07
 -9.366475e-07
 1.141366e-07
 1.533509e-06
 2.847081e-07
 -1.029281e-07
 -8.547742e-08
 4.332932e-08
 9.305556e-08
 1.764029e-05
 1.492491e-07
 -1.715693e-07
 1.728720e-05
 1.664282e-07
 2.372785e-07
 1.108632e-07
 1.672133e-08
 -5.509293e-08
 -1.200299e-07
 -1.635055e-07
 -1.591032e-07
 -1.725427e-07
 -2.550868e-07
 1.740847e-05
 1.973758e-07
 1.699542e-07
 0.000000e+00
 0.000000e+00
 1.448653e-07
 2.264869e-07
 2.170719e-07
 1.582061e-07
 7.154847e-08
 -7.104104e-08
 -1.613787e-07
 -6.070556e-08
 -9.104573e-07
 3.514654e-07
 1.210635e-06
 5.193410e-07
 2.328418e-07
 7.919923e-08
 8.181854e-08
 1.772049e-07
 3.479739e-07
 1.030170e-06
 9.488885e-07
 -2.331684e-06
 -1.873109e-05
 8.570264e-07
 -3.028989e-08
 -1.593685e-07
 -1.921822e-07
 8.648389e-08
 3.746623e-07
 2.854676e-07
 1.219997e-07
 1.250481e-07
 3.225691e-07
 1.043670e-06
 3.463792e-07
 2.493712e-07
 6.686451e-07
 -8.750174e-07
 -1.388894e-06
 -1.491527e-07
 -4.532187e-08
 -7.278189e-08
 -5.909370e-08
 -2.697171e-08
 -7.411333e-09
 2.143692e-08
 1.534134e-07
 7.867745e-07
 -6.597102e-08
 -1.306581e-06
 -2.019205e-07
 0.000000e+00
 0.000000e+00
 2.771645e-07
 4.309020e-07
 3.360022e-07
 2.169911e-07
 1.199168e-07
 -6.098515e-08
 -1.137367e-06
 1.597051e-07
 9.484775e-07
 1.775380e-05
 4.138620e-07
 5.726335e-07
 3.392526e-07
 1.016121e-07
 8.570370e-09
 7.157071e-10
 1.038080e-08
 -1.030160e-07
 -6.193654e-07
 -1.907011e-05
 -4.017397e-07
 1.336256e-06
 3.550413e-07
 1.254316e-07
 6.615396e-08
 1.274927e-07
 2.035581e-07
 1.975012e-07
 1.597271e-07
 1.740036e-07
 2.684537e-07
 3.477949e-07
 1.488005e-07
 8.952725e-09
 -1.732300e-05
 7.503769e-08
 -7.348861e-08
 1.418370e-08
 -1.225067e-07
 -2.403087e-07
 -7.688977e-08
 8.868840e-08
 1.474401e-07
 1.286185e-07
 1.552769e-07
 1.900563e-07
 -7.869443e-08
 -3.583047e-07
 -2.494097e-07
 0.000000e+00
 0.000000e+00
 2.812025e-07
 1.055592e-06
 3.939186e-07
 2.442243e-07
 2.238863e-07
 2.611845e-07
 2.888011e-07
 1.788532e-05
 9.342395e-07
 -9.556773e-07
 -8.575950e-07
 1.144216e-06
 3.667684e-07
 -5.312883e-08
 -1.447596e-07
 -1.894150e-07
 -2.976829e-07
 -6.023069e-07
 -1.501680e-06
 -7.464925e-07
 9.455196e-07
 4.307144e-07
 4.101490e-07
 2.729322e-07
 1.819199e-07
 1.523834e-07
 1.511376e-07
 1.436517e-07
 1.326073e-07
 1.359266e-07
 1.462740e-07
 1.018630e-07
 -1.104736e-07
 -7.895073e-07
 1.318532e-07
 1.417162e-06
 3.398677e-07
 1.143124e-06
 -1.472165e-07
 -8.633367e-07
 -1.248149e-08
 3.180768e-07
 4.061330e-07
 1.721458e-07
 3.503658e-08
 9.668184e-08
 -1.615087e-07
 -4.011841e-07
 -2.598818e-07
 0.000000e+00
 0.000000e+00
 1.745504e-05
 4.198135e-08
 1.182784e-07
 1.721125e-07
 2.826537e-07
 5.176898e-07
 1.247586e-06
 4.660557e-07
 -7.475180e-07
 1.161566e-07
 1.765189e-05
 1.388329e-06
 2.654347e-07
 -6.769712e-07
 -2.624334e-07
 -3.349207e-07
 -4.382289e-07
 -6.381559e-07
 -8.367852e-07
 -6.691876e-07
 -2.234700e-07
 2.440490e-07
 4.738948e-07
 3.669127e-07
 2.259009e-07
 1.490795e-07
 1.135361e-07
 9.616065e-08
 8.658571e-08
 8.091693e-08
 6.855737e-08
 2.356140e-08
 -7.717749e-08
 -1.256963e-07
 1.760227e-07
 4.227358e-07
 1.905814e-08
 -4.046925e-07
 -1.783581e-05
 6.727509e-08
 4.327335e-07
 5.923799e-07
 1.559372e-06
 1.915014e-07
 -6.309971e-07
 1.018126e-06
 -1.721205e-07
 -1.025450e-06
 -3.028767e-07
 0.000000e+00
 0.000000e+00
 -2.570774e-07
 -1.385973e-06
 -2.168123e-07
 5.359067e-08
 2.462696e-07
 4.542413e-07
 6.121773e-07
 4.787413e-07
 3.627164e-07
 9.579180e-07
 9.063501e-08
 -1.058668e-06
 -1.717807e-05
 5.093641e-07
 -8.698053e-08
 -5.409612e-07
 -4.448361e-07
 -5.695136e-07
 -7.315800e-07
 -6.549763e-07
 -1.415782e-06
 8.295665e-08
 1.051377e-06
 4.013416e-07
 1.985305e-07
 1.055895e-07
 6.036313e-08
 4.213336e-08
 3.547769e-08
 2.935221e-08
 2.229232e-08
 1.182709e-08
 -7.144708e-09
 1.128017e-08
 1.893667e-07
 1.241815e-06
 -2.892697e-07
 -2.028837e-06
 -1.520703e-06
 1.387508e-06
 1.374859e-06
 5.576250e-07
 2.745246e-07
 -1.738523e-05
 -8.016078e-08
 -1.615510e-07
 -1.762558e-05
 -1.320570e-07
 -9.574167e-08
 0.000000e+00
 0.000000e+00
 -1.900792e-07
 -3.661277e-07
 -2.438889e-07
 -1.890704e-08
 1.841194e-07
 3.560764e-07
 4.416153e-07
 4.149892e-07
 3.760547e-07
 3.296764e-07
 -5.214288e-08
 -8.507999e-07
 4.943804e-07
 4.069429e-06
 1.802537e-07
 -1.842040e-06
 5.362951e-07
 -3.653035e-07
 -1.098718e-06
 -3.189819e-07
 -6.509592e-08
 1.753749e-05
 1.385819e-07
 1.586518e-07
 8.656657e-08
 1.837229e-08
 -1.959629e-08
 -2.300017e-08
 -1.386350e-08
 -2.135470e-08
 -2.356442e-08
 1.803378e-08
 4.175512e-08
 -9.532585e-09
 -1.029696e-07
 -1.380987e-07
 -1.766141e-05
 -2.811651e-07
 -1.152505e-07
 1.790742e-05
 6.197762e-07
 2.728746e-07
 -6.846011e-07
 -8.826044e-08
 8.612015e-07
 -9.582741e-07
 -2.055651e-07
 1.139263e-06
 1.361055e-07
 0.000000e+00
 0.000000e+00
 -1.331826e-07
 -2.233940e-07
 -2.088065e-07
 -7.938708e-08
 1.434721e-07
 3.462991e-07
 4.145081e-07
 3.620209e-07
 2.766526e-07
 1.862757e-07
 -8.898441e-09
 -2.041681e-07
 2.939272e-08
 1.361256e-06
 -3.489013e-05
 -8.923792e-07
 -2.183617e-07
 -1.745575e-05
 1.061007e-07
 2.782765e-07
 9.903428e-07
 1.528632e-07
 -1.113270e-06
 -6.920211e-08
 -2.608597e-08
 -1.042723e-07
 -1.385118e-07
 -1.042702e-07
 -3.494569e-08
 -6.919399e-08
 -1.408394e-07
 4.419837e-08
 1.895029e-07
 4.359370e-09
 -3.800767e-07
 -1.130149e-06
 -4.462003e-09
 1.540892e-06
 8.289916e-08
 3.749737e-07
 -2.344456e-08
 2.819313e-07
 -1.007067e-07
 -2.467423e-07
 -3.707103e-07
 -6.594917e-07
 -4.274094e-07
 -3.549539e-09
 8.757513e-08
 0.000000e+00
 0.000000e+00
 -1.106568e-07
 -2.010035e-07
 -2.867746e-07
 -2.563135e-07
 1.210221e-07
 5.003725e-07
 5.215078e-07
 3.329525e-07
 1.448310e-07
 1.787040e-07
 1.522332e-07
 -1.643410e-07
 -6.992471e-07
 -2.108653e-06
 -1.781710e-05
 2.417271e-06
 -1.140115e-07
 4.595369e-07
 1.633633e-06
 5.836425e-07
 4.846265e-07
 2.686870e-07
 9.946995e-08
 1.495721e-07
 -5.079730e-08
 -2.974953e-07
 -3.267351e-07
 -2.486176e-07
 5.509139e-08
 1.230040e-07
 -1.105000e-06
 1.110238e-08
 8.262452e-07
 1.042211e-07
 -2.943020e-07
 -1.465880e-06
 7.644762e-08
 1.326125e-06
 6.911364e-07
 1.773860e-05
 1.485945e-07
 1.244449e-06
 -1.783084e-08
 5.910804e-08
 -5.913388e-07
 -1.381293e-06
 -7.033847e-07
 -2.265858e-07
 7.715048e-08
 0.000000e+00
 0.000000e+00
 -1.147672e-07
 -1.939290e-07
 -3.042952e-07
 -1.357108e-06
 -1.431621e-08
 1.184445e-06
 7.706912e-07
 4.632930e-07
 -7.694117e-07
 1.427737e-07
 7.379506e-07
 -5.387722e-08
 -8.250280e-07
 -1.980303e-06
 -1.612403e-06
 1.611811e-06
 1.413022e-06
 6.702103e-07
 6.202971e-07
 4.349512e-07
 2.968248e-07
 2.684512e-07
 3.448653e-07
 1.371204e-06
 4.990045e-08
 -8.839078e-07
 -3.723586e-07
 -1.214317e-06
 2.677226e-07
 1.227623e-06
 2.673962e-07
 1.732138e-05
 -1.079849e-07
 3.426494e-08
 1.007110e-07
 1.029175e-07
 1.761323e-05
 3.059059e-07
 8.733094e-07
 -1.494481e-07
 -1.255108e-06
 -2.022161e-08
 -1.780166e-05
 -6.430041e-07
 -1.788243e-05
 -3.095735e-07
 -1.556821e-06
 -3.933094e-07
 6.239778e-07
 0.000000e+00
 0.000000e+00
 -1.642258e-07
 -2.190950e-07
 3.972070e-08
 1.162047e-07
 1.648542e-05
 2.849591e-07
 1.227453e-06
 7.087453e-07
 1.533492e-06
 1.758714e-05
 -7.459367e-07
 8.434058e-07
 -4.858770e-07
 -1.360420e-06
 -3.111661e-07
 1.779077e-05
 4.438669e-07
 4.786836e-07
 3.878929e-07
 4.399517e-08
 1.383378e-08
 2.327209e-07
 1.987008e-07
 1.616878e-07
 -1.731406e-05
 1.611344e-07
 1.820399e-07
 2.428215e-07
 1.791165e-05
 1.650392e-06
 9.566560e-07
 -8.725554e-07
 -1.442071e-06
 -2.842136e-08
 4.879904e-07
 1.247483e-06
 1.393728e-07
 -1.341700e-06
 -3.393665e-07
 -1.456416e-06
 -4.242056e-07
 8.190016e-07
 -4.710468e-07
 -1.880712e-06
 -9.041712e-08
 2.091641e-06
 1.092800e-07
 1.606777e-05
 -3.159137e-07
 0.000000e+00
 0.000000e+00
 -1.528726e-07
 -1.143647e-06
 3.716923e-07
 1.964404e-06
 4.079293e-07
 1.640424e-05
 -4.669766e-09
 2.915165e-07
 9.486109e-07
 -1.746140e-05
 -1.383443e-06
 -3.530967e-07
 -1.760621e-05
 1.294195e-07
 9.269586e-07
 2.028044e-07
 -1.034838e-06
 1.353073e-07
 1.192748e-06
 -1.158841e-06
 -7.746490e-07
 7.032126e-07
 5.058439e-08
 -6.949527e-07
 2.114822e-07
 1.589735e-06
 7.050815e-07
 1.202572e-06
 2.615410e-07
 -1.006132e-06
 -1.748133e-05
 -1.653564e-07
 -1.449655e-07
 2.506572e-07
 5.937807e-07
 1.717756e-06
 1.831238e-07
 -9.810063e-07
 -3.366129e-07
 -2.504381e-07
 1.707726e-05
 -4.696084e-07
 -1.776679e-05
 -1.007804e-07
 1.772430e-05
 7.004744e-07
 1.075380e-06
 -1.905225e-07
 1.604131e-05
 0.000000e+00
 0.000000e+00
 1.245671e-07
 2.281994e-07
 1.788197e-05
 6.720801e-07
 1.109345e-06
 -1.016108e-07
 -1.417282e-06
 -3.425132e-07
 -7.540269e-07
 -8.613869e-08
 8.071044e-07
 -8.332829e-07
 1.142408e-07
 1.607302e-06
 6.673472e-07
 2.479025e-07
 -1.337891e-07
 -1.401950e-07
 2.257836e-08
 -1.740861e-05
 1.751827e-05
 -3.297009e-10
 -3.319298e-08
 -7.746216e-08
 1.976579e-07
 5.374073e-07
 6.019791e-07
 5.216252e-07
 9.816895e-08
 -8.423886e-07
 -1.086205e-07
 6.503983e-08
 1.888304e-07
 9.417204e-07
 3.299377e-07
 2.361346e-07
 -1.731094e-05
 9.316417e-08
 1.655740e-07
 7.603071e-07
 -2.555682e-07
 -2.145149e-06
 -1.786151e-07
 1.917896e-06
 4.123578e-07
 3.373522e-07
 3.302306e-07
 4.632839e-08
 -1.905268e-07
 0.000000e+00
 0.000000e+00
 3.423702e-07
 1.130868e-06
 3.610999e-07
 -8.445215e-07
 1.894253e-07
 -8.515962e-09
 -3.093634e-07
 -3.335755e-07
 -2.980368e-07
 -1.314323e-07
 2.454957e-09
 -4.367369e-08
 2.232425e-07
 6.546387e-07
 6.727910e-07
 2.069337e-07
 -2.133801e-07
 -3.254541e-07
 -7.096676e-07
 8.967778e-07
 1.337597e-06
 -1.025101e-06
 -1.062178e-07
 5.334966e-08
 2.034606e-07
 3.388069e-07
 3.820713e-07
 3.237258e-07
 1.780245e-07
 1.346710e-07
 3.883098e-07
 3.458929e-07
 1.749580e-05
 -8.496497e-08
 -1.813807e-07
 -8.123810e-07
 9.634673e-08
 1.421747e-06
 4.055936e-07
 2.647030e-07
 2.948785e-08
 7.897057e-07
 -1.199310e-07
 -5.023824e-07
 -1.974875e-09
 -9.379402e-08
 -1.744774e-05
 1.431642e-07
 5.489845e-08
 0.000000e+00
 0.000000e+00
 2.790473e-07
 4.812748e-07
 3.466676e-07
 1.138430e-07
 9.246141e-08
 4.245151e-08
 -7.178711e-08
 -1.276218e-07
 -1.182732e-07
 -5.523035e-08
 1.768605e-08
 9.167993e-08
 2.511171e-07
 5.271932e-07
 1.604623e-06
 2.059192e-07
 -8.191034e-07
 -2.955767e-07
 -1.434902e-07
 1.827141e-07
 2.633868e-07
 3.149581e-08
 3.265891e-08
 1.444160e-07
 2.130830e-07
 2.532606e-07
 2.586198e-07
 2.366069e-07
 2.424368e-07
 4.486356e-07
 1.771111e-06
 1.189360e-06
 -6.541679e-07
 -1.462484e-06
 -4.051889e-07
 -2.859302e-07
 1.122292e-08
 3.116371e-07
 2.754568e-07
 1.035051e-07
 -8.697739e-08
 -1.430246e-07
 -1.750359e-05
 5.118778e-08
 -1.665120e-07
 -9.446114e-07
 -2.240664e-07
 9.840235e-07
 6.426682e-08
 0.000000e+00
 0.000000e+00
 2.046298e-07
 3.369785e-07
 3.431502e-07
 2.792229e-07
 2.211953e-07
 1.553824e-07
 7.761027e-08
 1.866050e-08
 -2.743730e-09
 1.541280e-08
 6.014536e-08
 1.172146e-07
 1.783794e-07
 2.121829e-07
 2.458704e-07
 -1.725506e-05
 1.301860e-07
 1.624999e-08
 -3.148083e-08
 -4.133481e-08
 -1.019121e-08
 1.042643e-07
 2.412270e-07
 2.769819e-07
 2.455567e-07
 2.057460e-07
 1.691003e-07
 1.399603e-07
 1.439712e-07
 2.214259e-07
 4.504942e-07
 -1.685364e-05
 3.491396e-07
 -1.112427e-07
 -2.243127e-07
 -1.454260e-07
 -2.165198e-09
 1.142974e-07
 1.087364e-07
 -9.501442e-09
 -2.484386e-07
 -9.172405e-07
 1.746646e-08
 1.335313e-06
 1.435485e-07
 -2.286427e-07
 -4.006699e-07
 -1.399404e-06
 -1.951944e-07
 0.000000e+00
 0.000000e+00
 2.003687e-07
 3.457429e-07
 4.142957e-07
 4.134835e-07
 3.643461e-07
 2.884778e-07
 2.036873e-07
 1.251257e-07
 7.010091e-08
 5.924793e-08
 9.306552e-08
 1.336938e-07
 1.268290e-07
 -1.435342e-08
 -6.539357e-07
 2.340646e-07
 1.503104e-06
 3.452074e-07
 2.447959e-08
 -2.855795e-07
 -3.929229e-07
 1.339718e-07
 5.961490e-07
 4.744395e-07
 2.751903e-07
 1.550128e-07
 7.630544e-08
 1.460001e-08
 -3.527029e-08
 -9.462860e-08
 -5.103149e-07
 6.188524e-07
 1.889212e-06
 3.897465e-07
 -9.640164e-08
 -9.454875e-08
 9.675408e-09
 6.645867e-08
 5.092561e-08
 -3.158591e-08
 -1.583019e-07
 -2.095825e-07
 7.170999e-08
 3.726468e-07
 2.985893e-07
 1.034230e-07
 -8.762511e-08
 -1.230612e-06
 1.729581e-05
 0.000000e+00
 0.000000e+00
 2.581413e-07
 4.363402e-07
 5.570047e-07
 5.958469e-07
 5.334730e-07
 4.299509e-07
 3.238102e-07
 2.096562e-07
 9.541829e-08
 5.009592e-08
 1.174381e-07
 1.964861e-07
 1.835332e-07
 8.568352e-08
 2.210988e-08
 2.610452e-07
 5.291695e-07
 4.186625e-07
 9.295606e-08
 -3.883986e-07
 -2.570166e-06
 6.153918e-08
 1.875781e-06
 5.785179e-07
 2.188698e-07
 6.704490e-08
 -3.041788e-08
 -1.198232e-07
 -2.353424e-07
 -2.613698e-07
 9.042126e-08
 7.600600e-07
 2.012385e-06
 5.085733e-07
 -6.028455e-07
 -5.209604e-08
 7.534128e-08
 9.638872e-08
 6.211216e-08
 -5.557955e-09
 -6.438549e-08
 -1.776746e-08
 1.901071e-07
 3.846764e-07
 4.073260e-07
 3.726609e-07
 4.983266e-07
 1.121011e-06
 1.776613e-05
 0.000000e+00
 0.000000e+00
 4.263045e-07
 5.650296e-07
 7.821606e-07
 9.012637e-07
 7.352365e-07
 5.647135e-07
 4.538502e-07