<VTKFile type="UnstructuredGrid"  version="0.1"   >
<UnstructuredGrid>  
<Piece  NumberOfPoints="     2601"  NumberOfCells="     5000">  
<Points>  
<DataArray  type="Float64"  NumberOfComponents="3"  format="ascii">  
 0.000000 0.000000 0.000000 
 0.020000 0.000000 0.000000 
 0.040000 0.000000 0.000000 
 0.060000 0.000000 0.000000 
 0.080000 0.000000 0.000000 
 0.100000 0.000000 0.000000 
 0.120000 0.000000 0.000000 
 0.140000 0.000000 0.000000 
 0.160000 0.000000 0.000000 
 0.180000 0.000000 0.000000 
 0.200000 0.000000 0.000000 
 0.220000 0.000000 0.000000 
 0.240000 0.000000 0.000000 
 0.260000 0.000000 0.000000 
 0.280000 0.000000 0.000000 
 0.300000 0.000000 0.000000 
 0.320000 0.000000 0.000000 
 0.340000 0.000000 0.000000 
 0.360000 0.000000 0.000000 
 0.380000 0.000000 0.000000 
 0.400000 0.000000 0.000000 
 0.420000 0.000000 0.000000 
 0.440000 0.000000 0.000000 
 0.460000 0.000000 0.000000 
 0.480000 0.000000 0.000000 
 0.500000 0.000000 0.000000 
 0.520000 0.000000 0.000000 
 0.540000 0.000000 0.000000 
 0.560000 0.000000 0.000000 
 0.580000 0.000000 0.000000 
 0.600000 0.000000 0.000000 
 0.620000 0.000000 0.000000 
 0.640000 0.000000 0.000000 
 0.660000 0.000000 0.000000 
 0.680000 0.000000 0.000000 
 0.700000 0.000000 0.000000 
 0.720000 0.000000 0.000000 
 0.740000 0.000000 0.000000 
 0.760000 0.000000 0.000000 
 0.780000 0.000000 0.000000 
 0.800000 0.000000 0.000000 
 0.820000 0.000000 0.000000 
 0.840000 0.000000 0.000000 
 0.860000 0.000000 0.000000 
 0.880000 0.000000 0.000000 
 0.900000 0.000000 0.000000 
 0.920000 0.000000 0.000000 
 0.940000 0.000000 0.000000 
 0.960000 0.000000 0.000000 
 0.980000 0.000000 0.000000 
 1.000000 0.000000 0.000000 
 0.000000 0.020000 0.000000 
 0.020000 0.020000 0.000000 
 0.040000 0.020000 0.000000 
 0.060000 0.020000 0.000000 
 0.080000 0.020000 0.000000 
 0.100000 0.020000 0.000000 
 0.120000 0.020000 0.000000 
 0.140000 0.020000 0.000000 
 0.160000 0.020000 0.000000 
 0.180000 0.020000 0.000000 
 0.200000 0.020000 0.000000 
 0.220000 0.020000 0.000000 
 0.240000 0.020000 0.000000 
 0.260000 0.020000 0.000000 
 0.280000 0.020000 0.000000 
 0.300000 0.020000 0.000000 
 0.320000 0.020000 0.000000 
 0.340000 0.020000 0.000000 
 0.360000 0.020000 0.000000 
 0.380000 0.020000 0.000000 
 0.400000 0.020000 0.000000 
 0.420000 0.020000 0.000000 
 0.440000 0.020000 0.000000 
 0.460000 0.020000 0.000000 
 0.480000 0.020000 0.000000 
 0.500000 0.020000 0.000000 
 0.520000 0.020000 0.000000 
 0.540000 0.020000 0.000000 
 0.560000 0.020000 0.000000 
 0.580000 0.020000 0.000000 
 0.600000 0.020000 0.000000 
 0.620000 0.020000 0.000000 
 0.640000 0.020000 0.000000 
 0.660000 0.020000 0.000000 
 0.680000 0.020000 0.000000 
 0.700000 0.020000 0.000000 
 0.720000 0.020000 0.000000 
 0.740000 0.020000 0.000000 
 0.760000 0.020000 0.000000 
 0.780000 0.020000 0.000000 
 0.800000 0.020000 0.000000 
 0.820000 0.020000 0.000000 
 0.840000 0.020000 0.000000 
 0.860000 0.020000 0.000000 
 0.880000 0.020000 0.000000 
 0.900000 0.020000 0.000000 
 0.920000 0.020000 0.000000 
 0.940000 0.020000 0.000000 
 0.960000 0.020000 0.000000 
 0.980000 0.020000 0.000000 
 1.000000 0.020000 0.000000 
 0.000000 0.040000 0.000000 
 0.020000 0.040000 0.000000 
 0.040000 0.040000 0.000000 
 0.060000 0.040000 0.000000 
 0.080000 0.040000 0.000000 
 0.100000 0.040000 0.000000 
 0.120000 0.040000 0.000000 
 0.140000 0.040000 0.000000 
 0.160000 0.040000 0.000000 
 0.180000 0.040000 0.000000 
 0.200000 0.040000 0.000000 
 0.220000 0.040000 0.000000 
 0.240000 0.040000 0.000000 
 0.260000 0.040000 0.000000 
 0.280000 0.040000 0.000000 
 0.300000 0.040000 0.000000 
 0.320000 0.040000 0.000000 
 0.340000 0.040000 0.000000 
 0.360000 0.040000 0.000000 
 0.380000 0.040000 0.000000 
 0.400000 0.040000 0.000000 
 0.420000 0.040000 0.000000 
 0.440000 0.040000 0.000000 
 0.460000 0.040000 0.000000 
 0.480000 0.040000 0.000000 
 0.500000 0.040000 0.000000 
 0.520000 0.040000 0.000000 
 0.540000 0.040000 0.000000 
 0.560000 0.040000 0.000000 
 0.580000 0.040000 0.000000 
 0.600000 0.040000 0.000000 
 0.620000 0.040000 0.000000 
 0.640000 0.040000 0.000000 
 0.660000 0.040000 0.000000 
 0.680000 0.040000 0.000000 
 0.700000 0.040000 0.000000 
 0.720000 0.040000 0.000000 
 0.740000 0.040000 0.000000 
 0.760000 0.040000 0.000000 
 0.780000 0.040000 0.000000 
 0.800000 0.040000 0.000000 
 0.820000 0.040000 0.000000 
 0.840000 0.040000 0.000000 
 0.860000 0.040000 0.000000 
 0.880000 0.040000 0.000000 
 0.900000 0.040000 0.000000 
 0.920000 0.040000 0.000000 
 0.940000 0.040000 0.000000 
 0.960000 0.040000 0.000000 
 0.980000 0.040000 0.000000 
 1.000000 0.040000 0.000000 
 0.000000 0.060000 0.000000 
 0.020000 0.060000 0.000000 
 0.040000 0.060000 0.000000 
 0.060000 0.060000 0.000000 
 0.080000 0.060000 0.000000 
 0.100000 0.060000 0.000000 
 0.120000 0.060000 0.000000 
 0.140000 0.060000 0.000000 
 0.160000 0.060000 0.000000 
 0.180000 0.060000 0.000000 
 0.200000 0.060000 0.000000 
 0.220000 0.060000 0.000000 
 0.240000 0.060000 0.000000 
 0.260000 0.060000 0.000000 
 0.280000 0.060000 0.000000 
 0.300000 0.060000 0.000000 
 0.320000 0.060000 0.000000 
 0.340000 0.060000 0.000000 
 0.360000 0.060000 0.000000 
 0.380000 0.060000 0.000000 
 0.400000 0.060000 0.000000 
 0.420000 0.060000 0.000000 
 0.440000 0.060000 0.000000 
 0.460000 0.060000 0.000000 
 0.480000 0.060000 0.000000 
 0.500000 0.060000 0.000000 
 0.520000 0.060000 0.000000 
 0.540000 0.060000 0.000000 
 0.560000 0.060000 0.000000 
 0.580000 0.060000 0.000000 
 0.600000 0.060000 0.000000 
 0.620000 0.060000 0.000000 
 0.640000 0.060000 0.000000 
 0.660000 0.060000 0.000000 
 0.680000 0.060000 0.000000 
 0.700000 0.060000 0.000000 
 0.720000 0.060000 0.000000 
 0.740000 0.060000 0.000000 
 0.760000 0.060000 0.000000 
 0.780000 0.060000 0.000000 
 0.800000 0.060000 0.000000 
 0.820000 0.060000 0.000000 
 0.840000 0.060000 0.000000 
 0.860000 0.060000 0.000000 
 0.880000 0.060000 0.000000 
 0.900000 0.060000 0.000000 
 0.920000 0.060000 0.000000 
 0.940000 0.060000 0.000000 
 0.960000 0.060000 0.000000 
 0.980000 0.060000 0.000000 
 1.000000 0.060000 0.000000 
 0.000000 0.080000 0.000000 
 0.020000 0.080000 0.000000 
 0.040000 0.080000 0.000000 
 0.060000 0.080000 0.000000 
 0.080000 0.080000 0.000000 
 0.100000 0.080000 0.000000 
 0.120000 0.080000 0.000000 
 0.140000 0.080000 0.000000 
 0.160000 0.080000 0.000000 
 0.180000 0.080000 0.000000 
 0.200000 0.080000 0.000000 
 0.220000 0.080000 0.000000 
 0.240000 0.080000 0.000000 
 0.260000 0.080000 0.000000 
 0.280000 0.080000 0.000000 
 0.300000 0.080000 0.000000 
 0.320000 0.080000 0.000000 
 0.340000 0.080000 0.000000 
 0.360000 0.080000 0.000000 
 0.380000 0.080000 0.000000 
 0.400000 0.080000 0.000000 
 0.420000 0.080000 0.000000 
 0.440000 0.080000 0.000000 
 0.460000 0.080000 0.000000 
 0.480000 0.080000 0.000000 
 0.500000 0.080000 0.000000 
 0.520000 0.080000 0.000000 
 0.540000 0.080000 0.000000 
 0.560000 0.080000 0.000000 
 0.580000 0.080000 0.000000 
 0.600000 0.080000 0.000000 
 0.620000 0.080000 0.000000 
 0.640000 0.080000 0.000000 
 0.660000 0.080000 0.000000 
 0.680000 0.080000 0.000000 
 0.700000 0.080000 0.000000 
 0.720000 0.080000 0.000000 
 0.740000 0.080000 0.000000 
 0.760000 0.080000 0.000000 
 0.780000 0.080000 0.000000 
 0.800000 0.080000 0.000000 
 0.820000 0.080000 0.000000 
 0.840000 0.080000 0.000000 
 0.860000 0.080000 0.000000 
 0.880000 0.080000 0.000000 
 0.900000 0.080000 0.000000 
 0.920000 0.080000 0.000000 
 0.940000 0.080000 0.000000 
 0.960000 0.080000 0.000000 
 0.980000 0.080000 0.000000 
 1.000000 0.080000 0.000000 
 0.000000 0.100000 0.000000 
 0.020000 0.100000 0.000000 
 0.040000 0.100000 0.000000 
 0.060000 0.100000 0.000000 
 0.080000 0.100000 0.000000 
 0.100000 0.100000 0.000000 
 0.120000 0.100000 0.000000 
 0.140000 0.100000 0.000000 
 0.160000 0.100000 0.000000 
 0.180000 0.100000 0.000000 
 0.200000 0.100000 0.000000 
 0.220000 0.100000 0.000000 
 0.240000 0.100000 0.000000 
 0.260000 0.100000 0.000000 
 0.280000 0.100000 0.000000 
 0.300000 0.100000 0.000000 
 0.320000 0.100000 0.000000 
 0.340000 0.100000 0.000000 
 0.360000 0.100000 0.000000 
 0.380000 0.100000 0.000000 
 0.400000 0.100000 0.000000 
 0.420000 0.100000 0.000000 
 0.440000 0.100000 0.000000 
 0.460000 0.100000 0.000000 
 0.480000 0.100000 0.000000 
 0.500000 0.100000 0.000000 
 0.520000 0.100000 0.000000 
 0.540000 0.100000 0.000000 
 0.560000 0.100000 0.000000 
 0.580000 0.100000 0.000000 
 0.600000 0.100000 0.000000 
 0.620000 0.100000 0.000000 
 0.640000 0.100000 0.000000 
 0.660000 0.100000 0.000000 
 0.680000 0.100000 0.000000 
 0.700000 0.100000 0.000000 
 0.720000 0.100000 0.000000 
 0.740000 0.100000 0.000000 
 0.760000 0.100000 0.000000 
 0.780000 0.100000 0.000000 
 0.800000 0.100000 0.000000 
 0.820000 0.100000 0.000000 
 0.840000 0.100000 0.000000 
 0.860000 0.100000 0.000000 
 0.880000 0.100000 0.000000 
 0.900000 0.100000 0.000000 
 0.920000 0.100000 0.000000 
 0.940000 0.100000 0.000000 
 0.960000 0.100000 0.000000 
 0.980000 0.100000 0.000000 
 1.000000 0.100000 0.000000 
 0.000000 0.120000 0.000000 
 0.020000 0.120000 0.000000 
 0.040000 0.120000 0.000000 
 0.060000 0.120000 0.000000 
 0.080000 0.120000 0.000000 
 0.100000 0.120000 0.000000 
 0.120000 0.120000 0.000000 
 0.140000 0.120000 0.000000 
 0.160000 0.120000 0.000000 
 0.180000 0.120000 0.000000 
 0.200000 0.120000 0.000000 
 0.220000 0.120000 0.000000 
 0.240000 0.120000 0.000000 
 0.260000 0.120000 0.000000 
 0.280000 0.120000 0.000000 
 0.300000 0.120000 0.000000 
 0.320000 0.120000 0.000000 
 0.340000 0.120000 0.000000 
 0.360000 0.120000 0.000000 
 0.380000 0.120000 0.000000 
 0.400000 0.120000 0.000000 
 0.420000 0.120000 0.000000 
 0.440000 0.120000 0.000000 
 0.460000 0.120000 0.000000 
 0.480000 0.120000 0.000000 
 0.500000 0.120000 0.000000 
 0.520000 0.120000 0.000000 
 0.540000 0.120000 0.000000 
 0.560000 0.120000 0.000000 
 0.580000 0.120000 0.000000 
 0.600000 0.120000 0.000000 
[...]
<PointData  Scalars="U"> 
<DataArray  type="Float64"  Name="U"  format="ascii"> 
 0.000000e+00
 0.000000e+00
 0.000000e+00
 0.000000e+00
 0.000000e+00
 0.000000e+00
 0.000000e+00
 0.000000e+00
 0.000000e+00
 0.000000e+00
 0.000000e+00
 0.000000e+00
 0.000000e+00
 0.000000e+00
 0.000000e+00
 0.000000e+00
 0.000000e+00
 0.000000e+00
 0.000000e+00
 0.000000e+00
 0.000000e+00
 0.000000e+00
 0.000000e+00
 0.000000e+00
 0.000000e+00
 0.000000e+00
 0.000000e+00
 0.000000e+00
 0.000000e+00
 0.000000e+00
 0.000000e+00
 0.000000e+00
 0.000000e+00
 0.000000e+00
 0.000000e+00
 0.000000e+00
 0.000000e+00
 0.000000e+00
 0.000000e+00
 0.000000e+00
 0.000000e+00
 0.000000e+00
 0.000000e+00
 0.000000e+00
 0.000000e+00
 0.000000e+00
 0.000000e+00
 0.000000e+00
 0.000000e+00
 0.000000e+00
 0.000000e+00
 0.000000e+00
 -1.123757e-09
 -5.052114e-09
 -1.609492e-08
 -3.902278e-08
 -6.565920e-08
 -5.053639e-08
 3.622012e-08
 1.163188e-07
 1.232023e-07
 9.160038e-08
 6.191110e-08
 6.351729e-08
 1.887342e-07
 1.271632e-06
 4.856199e-08
 -7.753455e-07
 -1.259078e-07
 1.103231e-08
 3.744359e-08
 3.792942e-08
 3.741471e-08
 4.522631e-08
 5.962820e-08
 7.601584e-08
 1.014258e-07
 1.666818e-07
 3.324810e-07
 7.171917e-07
 1.701930e-06
 3.820484e-06
 3.760950e-06
 1.020684e-06
 4.889928e-07
 4.338490e-07
 3.901889e-07
 1.765242e-05
 8.469971e-08
 2.830205e-07
 5.494925e-07
 9.158637e-07
 1.610141e-06
 3.523806e-06
 3.557265e-06
 9.097627e-07
 3.714692e-07
 2.069118e-07
 1.254781e-07
 7.611486e-08
 3.461612e-08
 0.000000e+00
 0.000000e+00
 2.607233e-10
 -3.309581e-09
 -1.918998e-08
 -6.552926e-08
 -1.721321e-07
 -2.008897e-07
 8.271954e-08
 3.312841e-07
 2.808311e-07
 1.777598e-07
 9.968374e-08
 4.125645e-08
 3.055170e-09
 4.727635e-08
 -1.737537e-05
 1.069845e-07
 8.324432e-08
 9.913510e-08
 9.471834e-08
 7.501651e-08
 6.437072e-08
 8.317196e-08
 1.192960e-07
 1.472395e-07
 1.678469e-07
 2.390987e-07
 4.737677e-07
 9.799564e-07
 1.812597e-06
 3.490886e-06
 2.115352e-06
 5.686927e-07
 6.904534e-07
 6.312176e-07
 1.111596e-06
 3.811044e-07
 -6.538606e-07
 5.199087e-07
 8.645337e-07
 2.216269e-06
 1.615797e-06
 2.431350e-06
 1.798623e-06
 4.518587e-07
 5.409255e-07
 3.471255e-07
 2.210194e-07
 1.462527e-07
 7.589013e-08
 0.000000e+00
 0.000000e+00
 4.711661e-09
 9.153288e-09
 5.627714e-09
 -3.165377e-08
 -1.864645e-07
 -1.247258e-06
 8.026890e-08
 1.014999e-06
 4.065178e-07
 2.386472e-07
 1.205161e-07
 -5.864006e-09
 -1.876011e-07
 -7.935118e-07
 1.392976e-07
 1.421244e-06
 3.293312e-07
 2.031166e-07
 1.733887e-07
 1.023529e-07
 5.459773e-08
 1.011022e-07
 1.918177e-07
 2.361466e-07
 1.946966e-07
 1.482504e-07
 3.271833e-07
 9.283526e-07
 1.509900e-06
 1.721884e-06
 -1.586966e-05
 1.273839e-06
 9.255887e-07
 6.227294e-07
 -6.149305e-07
 3.726039e-07
 1.331097e-06
 1.014172e-06
 7.347553e-07
 6.625825e-07
 -1.647078e-05
 1.399106e-06
 -1.591896e-05
 1.387051e-06
 8.152807e-07
 3.718473e-07
 2.674658e-07
 2.202250e-07
 1.244969e-07
 0.000000e+00
 0.000000e+00
 8.216411e-09
 2.702111e-08
 5.757499e-08
 9.083389e-08
 1.228002e-07
 9.260191e-08
 1.754606e-05
 1.296380e-07
 2.662016e-07
 2.889582e-07
 1.512208e-07
 -3.240463e-08
 -1.383069e-07
 -6.964099e-08
 2.563977e-07
 3.329771e-07
 1.595910e-07
 2.454096e-07
 3.357203e-07
 1.045795e-07
 -7.808120e-08
 7.020835e-08
 3.172747e-07
 4.404562e-07
 2.216735e-07
 -2.853117e-08
 -8.280694e-07
 7.972693e-07
 1.818187e-06
 6.391442e-07
 1.277113e-06
 2.355364e-06
 1.140584e-06
 8.794094e-07
 5.601475e-07
 1.680802e-05
 6.463752e-07
 2.562421e-06
 5.003243e-07
 -1.103276e-06
 4.297848e-07
 1.444314e-06
 1.527537e-06
 3.677394e-06
 1.104969e-06
 -1.232694e-07
 3.436233e-07
 3.523465e-07
 2.017194e-07
 0.000000e+00
 0.000000e+00
 -6.751833e-10
 3.094458e-08
 1.072009e-07
 2.203212e-07
 4.141430e-07
 1.036804e-06
 4.380286e-08
 -1.268623e-06
 1.609609e-07
 5.613757e-07
 2.213885e-07
 -1.635749e-07
 -1.762962e-07
 6.058536e-08
 1.291122e-06
 1.646131e-07
 -6.075925e-07
 2.023432e-07
 1.409981e-06
 1.398243e-07
 -7.123088e-07
 2.678913e-08
 4.017211e-07
 1.564644e-06
 3.286022e-07
 -4.231322e-07
 4.373381e-07
 1.831877e-05
 1.055339e-06
 1.054783e-06
 9.327721e-07
 9.279384e-07
 9.740103e-07
 1.116350e-06
 1.710944e-06
 6.241750e-07
 1.658669e-05
 9.698800e-08
 -1.726889e-05
 1.993647e-07
 4.378423e-07
 7.689063e-07
 1.003510e-06
 1.170630e-06
 -1.644603e-05
 8.096697e-07
 7.107907e-07
 6.413892e-07
 3.163501e-07
 0.000000e+00
 0.000000e+00
 -4.542011e-08
 -1.548831e-08
 1.262862e-07
 3.011439e-07
 4.464761e-07
 4.926730e-07
 1.145352e-07
 -1.220621e-06
 2.456184e-07
 2.302955e-06
 3.340900e-07
 -8.308502e-07
 -3.458527e-07
 -2.444313e-07
 -9.687882e-08
 -1.740200e-05
 1.817871e-07
 1.717577e-07
 1.582083e-07
 -1.733318e-05
 1.710059e-07
 2.073946e-07
 2.575222e-07
 3.181101e-07
 -1.712582e-05
 5.592335e-07
 1.583006e-06
 1.149826e-06
 4.319160e-08
 1.914147e-06
 6.248913e-07
 -1.254498e-07
 6.360594e-07
 1.087156e-06
 1.384129e-06
 1.538417e-06
 -1.675230e-08
 -2.078211e-06
 -6.489709e-08
 1.480826e-06
 6.027337e-07
 5.984889e-07
 5.481172e-07
 -4.409539e-08
 8.021863e-07
 2.019590e-06
 9.649497e-07
 1.761952e-06
 4.184004e-07
 0.000000e+00
 0.000000e+00
 -1.678080e-07
 -2.034609e-07
 1.181173e-07
 4.340237e-07
 4.749870e-07
 5.065847e-07
 5.029262e-07
 2.408166e-07
 1.755049e-05
 2.036521e-07
 -1.725269e-05
 -1.617934e-08
 -3.100007e-07
 -5.515719e-07
 -1.125246e-06
 -2.232258e-08
 1.492946e-06
 3.373238e-07
 -7.121635e-07
 5.748553e-09
 1.451806e-06
 4.595642e-07
 1.804818e-07
 -4.980497e-07
 3.248970e-07
 7.166812e-07
 1.090909e-06
 1.765242e-06
 1.905422e-06
 6.261049e-07
 -1.750648e-05
 6.957255e-07
 -1.144195e-07
 1.029319e-06
 1.675829e-06
 8.633513e-07
 2.085992e-07
 -2.748740e-07
 -5.246850e-08
 3.555469e-07
 4.623843e-07
 4.793550e-07
 4.695924e-07
 4.334691e-07
 6.067414e-07
 7.517930e-07
 5.392340e-07
 3.032072e-07
 -1.730578e-05
 0.000000e+00
 0.000000e+00
 -2.527321e-07
 -1.334218e-06
 3.357018e-08
 1.015899e-06
 4.335543e-07
 4.074698e-07
 1.624903e-06
 1.264978e-06
 -3.931595e-07
 -1.691839e-06
 2.508404e-07
 1.242895e-06
 -2.933969e-07
 -7.062921e-07
 -7.514305e-07
 -1.300398e-07
 5.440890e-07
 1.389028e-06
 -1.705489e-07
 -6.271388e-07
 5.056669e-07
 5.544224e-07
 3.473392e-07
 2.642046e-07
 5.425285e-07
 8.150487e-07
 1.817356e-05
 3.401179e-07
 5.999319e-08
 -1.777378e-05
 9.701561e-07
 2.521236e-06
 2.583872e-06
 1.861543e-05
 9.298266e-08
 4.631137e-07
 2.628312e-07
 7.710622e-08
 3.456660e-08
 1.028714e-07
 2.307471e-07
 3.919688e-07
 5.157646e-07
 5.386627e-07
 5.197103e-07
 4.253690e-07
 5.194251e-08
 -8.764668e-07
 -1.802270e-07
 0.000000e+00
 0.000000e+00
 -9.003518e-08
 -1.496019e-07
 1.741092e-05
 8.089282e-08
 5.245073e-08
 -1.536400e-07
 -8.599085e-07
 -1.669090e-05
 1.479413e-06
 6.377289e-07
 1.589756e-06
 3.058019e-07
 -9.907501e-07
 -8.827316e-07
 -1.783323e-06
 -2.590504e-07
 7.696844e-07
 7.268836e-08
 -1.857079e-05
 2.574996e-07
 1.228236e-06
 6.278906e-07
 4.660799e-07
 4.966237e-07
 7.588657e-07
 1.483252e-06
 4.622185e-07
 -1.327158e-06
 -2.176073e-06
 1.196147e-07
 2.697966e-06
 1.539277e-06
 2.191534e-06
 -1.610868e-05
 -1.675639e-07
 3.950870e-07
 2.550680e-07
 2.575110e-07
 1.078643e-08
 -2.000344e-07
 -4.657841e-08
 3.374896e-07
 7.005528e-07
 6.618704e-07
 4.731101e-07
 3.715403e-07
 1.083505e-07
 -1.173638e-06
 -2.096112e-07
 0.000000e+00
 0.000000e+00
 -3.734182e-08
 4.588847e-07
 -1.844175e-07
 -1.043877e-06
 -7.309958e-08
 -1.314640e-06
 -6.996448e-07
 1.862115e-05
 1.960737e-06
 1.836348e-06
 5.814483e-07
 -1.669556e-05
 -8.225518e-09
 -9.751715e-07
 -4.460999e-07
 1.716897e-05
 -2.953864e-07
 -7.836298e-07
 1.584240e-07
 1.900045e-05
 5.333872e-07
 4.392131e-07
 4.196118e-07
 4.978977e-07
 6.748033e-07
 8.113351e-07
 5.509338e-07
 8.885561e-08
 -1.881278e-07
 1.749939e-05
 5.602684e-07
 -2.114572e-07
 3.741223e-07
 1.851125e-06
 3.146544e-06
 6.153329e-07
 -2.644214e-07
 1.341776e-06
 4.496363e-08
 -1.020719e-06
 -4.964069e-07
 1.071292e-07
 1.887397e-06
 1.029878e-06
 1.790548e-07
 5.395894e-07
 4.944224e-07
 1.434781e-06
 1.766623e-05
 0.000000e+00
 0.000000e+00
 -1.859291e-07
 -1.328916e-06
 -1.156155e-06
 8.635058e-07
 9.010458e-07
 3.400043e-08
 1.801647e-05
 -3.463989e-08
 -1.021928e-06
 -2.404478e-08
 -1.794375e-05
 5.623119e-07
 -1.566510e-05
 4.897616e-07
 6.582586e-07
 -2.115678e-07
 -1.416874e-06
 -1.290517e-07
 9.853492e-07
 4.417936e-07
 -8.648222e-07
 1.282392e-07
 2.849190e-07
 3.870429e-07
 5.357631e-07
 7.137011e-07
 7.790959e-07
 7.495268e-07
 1.071173e-06
 -9.045983e-07
 -7.871656e-07
 1.156132e-06
 1.798266e-05
 3.069513e-07
 3.068033e-07
 -1.708525e-05
 4.778560e-07
 3.840939e-07
 -1.726344e-05
 -1.492268e-07
 -1.578993e-06
 -1.426389e-06
 1.025906e-06
 -1.577890e-05
 2.266962e-06
 1.088424e-06
 2.429306e-07
 1.132847e-06
 -1.725882e-05
 0.000000e+00
 0.000000e+00
 -7.015770e-08
 -9.847034e-08
 1.764027e-05
 1.876526e-05
 2.225800e-08
 -1.058213e-07
 -2.244004e-07
 -1.505817e-06
 -6.689858e-07
 -9.891687e-07
 1.199152e-07
 1.181444e-06
 2.044974e-06
 1.665325e-06
 -3.619966e-07
 -7.433714e-08
 -1.385957e-07
 1.165923e-07
 4.221060e-07
 3.004814e-07
 3.610856e-08
 7.196115e-08
 1.839249e-07
 2.140321e-07
 3.320711e-07
 7.615230e-07
 1.165345e-06
 1.202176e-06
 8.971828e-07
 4.170972e-07
 1.783672e-05
 1.124234e-06
 2.517830e-07
 -1.466699e-06
 -2.328971e-06
 -1.874461e-07
 2.058274e-06
 -8.331620e-08
 4.515769e-07
 1.567737e-06
 1.970066e-07
 1.609939e-05
 1.643716e-05
 -3.620248e-07
 1.742207e-06
 -1.562468e-05
 2.153604e-06
 -1.349310e-07
 -6.264883e-07
 0.000000e+00
 0.000000e+00
 9.888932e-08
 -1.655306e-07
 8.044569e-07
 -6.573583e-07
 -2.005214e-05
 -3.283803e-07
 -6.623843e-07
 -4.621214e-07
 -8.879168e-07
 -2.395862e-07
 8.210317e-07
 1.488076e-06
 3.889318e-07
 -1.775640e-05
 2.590457e-07
 2.051075e-07
 2.077040e-07
 3.645919e-07
 4.794644e-07
 2.372364e-07
 2.732618e-08
 1.084491e-07
 1.649133e-07
 1.114651e-07
 -7.629696e-07
 7.691528e-07
 1.924154e-06
 2.406731e-06
 1.060622e-06
 6.877239e-07
 4.292028e-07
 -6.049990e-07
 3.014400e-07
 -8.895589e-08
 -4.881089e-07
 1.596297e-05
 -1.402167e-07
 8.028224e-07
 4.724135e-07
 8.869544e-07
 1.679526e-06
 1.058138e-06
 1.579777e-05
 -2.020547e-06
 1.548252e-05
 3.373836e-07
 2.394135e-06
 -1.699639e-05
 1.021997e-07
 0.000000e+00
 0.000000e+00
 2.455808e-07
 3.700200e-07
 1.750744e-05
 -1.080313e-06
 -3.995438e-07
 1.849686e-05
 -5.323349e-09
 1.728133e-05
 -2.445463e-07
 1.724962e-05
 -4.390290e-07
 -5.720963e-07
 -1.840825e-05
 1.970392e-07
 1.555908e-06
 4.890794e-07
 3.542005e-07
 4.815281e-07
 1.512972e-06
 2.097286e-07
 -4.611282e-07
 2.816893e-07
 2.265160e-07
 2.091642e-07
 5.195628e-07
 1.829355e-05
 8.343884e-07
 8.567004e-07
 -1.660357e-05
 8.508333e-07
 5.931212e-07
 4.749609e-07
 1.565712e-06
 5.688097e-07
 1.403924e-06
 -1.393771e-07
 1.528010e-05
 -4.775091e-07
 1.434839e-08
 6.518836e-07
 1.256582e-06
 2.510113e-06
 -1.075189e-06
 -1.556991e-06
 3.977502e-08
 1.596556e-05
 -8.913946e-07
 9.728965e-08
 1.268291e-06
 0.000000e+00
 0.000000e+00
 3.340876e-07
 1.031826e-06
 1.901463e-08
 -1.346090e-06
 5.379352e-07
 2.315701e-07
 -3.794674e-07
 -1.595427e-07
 -6.242594e-07
 5.619250e-07
 -2.038226e-06
 -2.432304e-06
 -6.142946e-07
 1.270590e-06
 5.930536e-07
 4.126549e-07
 2.769687e-07
 2.805348e-07
 2.838948e-07
 -1.810806e-05
 6.797895e-07
 1.245672e-06
 2.837206e-07
 -6.932157e-07
 1.340306e-06
 1.383658e-06
 -6.575841e-07
 -3.723808e-07
 5.794543e-07
 1.816184e-06
 6.401982e-07
 3.827347e-07
 3.820999e-07
 -1.695044e-05
 7.931438e-07
 -1.628296e-05
 -7.516543e-08
 -1.551837e-06
 -1.322266e-06
 3.509399e-07
 1.339365e-06
 -2.212743e-07
 -1.685410e-05
 1.842607e-05
 4.535249e-07
 -6.592142e-07
 -1.825172e-06
 -3.702521e-07
 6.696182e-08
 0.000000e+00
 0.000000e+00
 2.171651e-07
 3.334449e-07
 1.067256e-07
 -1.091534e-07
 6.031304e-08
 9.964315e-08
 -4.393496e-08
 -2.249212e-07
 -4.410921e-07
 -6.581849e-07
 -1.835262e-05
 -8.024068e-07
 -3.380729e-07
 1.903940e-07
 3.041167e-07
 1.448138e-07
 2.321053e-08
 1.415494e-07
 -1.821170e-07
 8.317543e-07
 2.061515e-05
 7.727155e-07
 -2.054244e-07
 4.499834e-07
 1.812900e-05
 4.974163e-07
 2.954677e-07
 3.027860e-07
 3.673340e-07
 4.151445e-07
 3.575989e-07
 1.311374e-07
 -5.419912e-07
 3.097046e-07
 1.181803e-06
 1.047759e-06
 1.636287e-06
 7.279070e-08
 7.445218e-08
 1.775590e-05
 3.072002e-07
 -7.105262e-08
 1.988862e-05
 1.463039e-06
 -1.853615e-06
 -6.131905e-07
 -5.686076e-07
 -3.285593e-07
 -8.874593e-08
 0.000000e+00
 0.000000e+00
 1.187502e-07
 1.663451e-07
 1.087989e-07
 4.067755e-08
 3.801023e-08
 1.436173e-08
 -8.618797e-08
 -2.680210e-07
 -5.914799e-07
 -1.394154e-06
 -5.726305e-07
 8.312355e-07
 1.073068e-08
 9.799326e-08
 1.465478e-07
 1.860281e-09
 -1.087664e-06
 1.998235e-07
 1.238649e-06
 1.501967e-06
 7.916268e-07
 -1.797338e-05
 6.377372e-07
 1.402472e-06
 5.399115e-07
 -8.234018e-07
 2.867989e-07
 1.503810e-06
 3.367912e-07
 -4.709697e-07
 1.325250e-07
 1.480082e-07
 8.252352e-08
 2.913469e-07
 6.801289e-07
 1.921826e-06
 7.292264e-07
 -1.263936e-07
 1.160651e-06
 4.813460e-07
 -9.154190e-07
 5.977995e-07
 2.197375e-07
 -1.839412e-05
 -1.595130e-07
 -1.871461e-07
 -1.583183e-07
 -1.212445e-07
 -5.925795e-08
 0.000000e+00
 0.000000e+00
 9.272196e-08
 1.366310e-07
 1.197892e-07
 8.090535e-08
 5.247887e-08
 1.748480e-08
 -5.742324e-08
 -1.958961e-07
 -4.240297e-07
 -6.414096e-07
 -4.771843e-07
 -1.130457e-07
 3.533098e-08
 1.003915e-07
 1.662346e-07
 2.145380e-07
 2.040358e-07
 1.769676e-05
 3.274994e-07
 3.808940e-07
 -3.595675e-07
 3.771302e-07
 1.832142e-06
 9.316605e-07
 5.565592e-07
 1.939868e-07
 1.451510e-07
 2.576791e-07
 -1.713463e-05
 3.647102e-07
 3.269537e-07
 2.931440e-07
 2.602828e-07
 2.858975e-07
 3.271595e-07
 4.040098e-07
 -1.698656e-05
 6.126516e-07
 7.799985e-07
 1.600737e-06
 5.777359e-08
 -8.704452e-07
 -9.155494e-07
 -4.256960e-10
 1.406726e-06
 4.062858e-07
 2.048515e-07
 5.768394e-08
 -1.858052e-08
 0.000000e+00
 0.000000e+00
 1.218599e-07
 1.791293e-07
 1.512694e-07
 9.921235e-08
 7.139665e-08
 6.413776e-08
 3.225655e-08
 -2.957247e-08
 -1.563246e-07
 -4.484048e-07
 -5.326660e-07
 -2.600230e-07
 -1.711901e-08
 1.135842e-07
 2.150979e-07
 4.049530e-07
 1.075111e-06
 2.124358e-07
 -1.066082e-06
 -3.178786e-08
 6.790958e-08
 3.416051e-07
 6.821180e-07
 6.908817e-07
 5.118910e-07
 3.181000e-07
 8.883399e-08
 -5.713501e-07
 3.359060e-07
 1.665528e-06
 6.081297e-07
 4.358060e-07
 3.554986e-07
 2.622409e-07
 3.567856e-08
 -7.217494e-07
 1.391130e-07
 1.655169e-06
 6.018386e-07
 1.863319e-07
 -1.735413e-05
 4.700535e-08
 -1.738798e-07
 2.383827e-07
 7.633995e-07
 7.717487e-07
 5.620951e-07
 1.626857e-07
 -1.016889e-07
 0.000000e+00
 0.000000e+00
 2.215114e-07
 3.271164e-07
 2.010575e-07
 8.398249e-08
 6.070598e-08
 1.394205e-07
 1.847596e-07
 3.651525e-08
 8.390398e-07
 -4.071672e-07
 -1.122318e-06
 -2.599765e-07
 5.494083e-08
 1.549184e-07
 2.020232e-07
 2.849293e-07
 3.680620e-07
 2.147093e-07
 4.589473e-10
 1.824716e-08
 1.253085e-07
 2.796873e-07
 4.401729e-07
 5.013442e-07
 4.807047e-07
 4.258461e-07
 2.973534e-07
 1.421506e-07
 3.001798e-07
 5.813449e-07
 5.910196e-07
 5.128336e-07
 4.594416e-07
 3.470105e-07
 1.015942e-07
 -2.003280e-07
 -1.057744e-06
 4.094508e-07
 8.154749e-07
 -1.833966e-06
 1.545207e-08
 1.961573e-06
 -8.033932e-07
 3.325871e-07
 1.393146e-06
 9.561958e-07
 1.678346e-06
 2.178777e-07
 -7.214403e-07
 0.000000e+00
 0.000000e+00
 1.856494e-07
 8.792628e-07
 1.597045e-07
 -2.474640e-08
 -4.763845e-08
 8.687106e-08
 1.146498e-06
 -1.783384e-07
 -1.055679e-06
 -1.789894e-05
 -2.095339e-07
 1.317078e-07
 3.425594e-07
 2.320181e-07
 1.475640e-07
 7.987154e-08
 4.117424e-08
 2.002848e-07
 2.856830e-07
 1.513479e-07
 9.612237e-08
 1.971387e-07
 3.306954e-07
 3.984519e-07
 4.613347e-07
 6.049958e-07
 6.502473e-07
 3.670098e-07
 1.952538e-07
 3.571214e-07
 4.988810e-07
 5.571801e-07
 6.203726e-07
 5.907435e-07
 2.725800e-07
 8.088565e-08
 2.674539e-07
 1.786806e-05
 5.676911e-08
 -3.364357e-07
 1.729291e-05
 1.465544e-07
 1.774180e-07
 1.764273e-05
 3.346645e-07
 1.329340e-06
 1.067663e-07
 -1.690193e-05
 2.530888e-07
 0.000000e+00
 0.000000e+00
 1.730360e-05
 -2.316070e-07
 -2.376939e-07
 -2.569217e-07
 -2.755050e-07
 -3.085529e-07
 -2.847803e-07
 -1.783814e-05
 -9.625587e-07
 -1.016062e-07
 3.630722e-07
 6.839674e-07
 1.110395e-06
 1.560345e-07
 6.869790e-08
 2.495454e-08
 -1.035841e-06
 1.827140e-07
 9.425605e-07
 1.193818e-07
 -1.191072e-07
 8.637942e-08
 3.248618e-07
 3.039967e-07
 3.338149e-07
 7.236374e-07
 1.943781e-06
 5.274169e-07
 -4.280593e-07
 2.691558e-07
 5.007471e-07
 5.900128e-07
 7.039948e-07
 1.712155e-06
 4.080357e-07
 -2.989407e-07
 1.169433e-06
 1.529691e-06
 -9.527571e-07
 -2.138283e-07
 -3.144414e-07
 -1.266679e-06
 5.392285e-07
 -7.961084e-08
 -1.334566e-06
 -6.384960e-07
 -1.985331e-05
 -7.668464e-08
 -1.531315e-05
 0.000000e+00
 0.000000e+00
 -4.965100e-07
 -1.804152e-06
 -7.117015e-07
 -4.754735e-07
 -4.851229e-07
 -7.038065e-07
 -1.242579e-06
 -2.625624e-07
 1.141887e-06
 5.028187e-07
 9.069477e-07
 1.940675e-05
 2.583351e-07
 -8.261726e-07
 3.248055e-08
 4.441065e-07
 3.838639e-07
 1.769477e-05
 6.981068e-08
 -1.588802e-07
 -1.327665e-06
 -1.352914e-07
 7.246944e-07
 2.538726e-07
 -6.807947e-07
 5.196138e-07
 1.266470e-06
 -1.695374e-05
 3.870796e-07
 4.861339e-07
 6.381284e-07
 6.297955e-07
 4.760032e-07
 3.746697e-07
 -1.710230e-05
 4.471183e-07
 4.948983e-07
 3.535203e-07
 -1.731167e-05
 1.491882e-07
 -1.634644e-07
 -5.105731e-07
 -4.168454e-07
 -1.512776e-07
 -1.385916e-07
 -9.239722e-07
 -1.609397e-06
 1.746828e-05
 6.162780e-07
 0.000000e+00
 0.000000e+00
 -5.789464e-07
 -1.047250e-06
 -9.550485e-07
 -4.754490e-07
 -3.244430e-07
 -1.544622e-06
 -5.345627e-07
 -5.174183e-07
 3.556604e-07
 2.614802e-07
 1.465364e-06
 1.176420e-06
 -1.857314e-05
 -1.321054e-06
 2.007456e-07
 1.406833e-06
 1.422665e-06
 2.933248e-07
 -1.152926e-06
 -1.679545e-07
 -1.224253e-07
 1.721838e-05
 -1.262985e-06
 1.633013e-07
 1.136970e-06
 1.788275e-05
 -6.238720e-07
 -1.418978e-08
 1.366177e-06
 7.438446e-07
 9.643130e-07
 8.355966e-07
 2.678912e-07
 -6.897708e-07
 1.958035e-07
 1.527983e-06
 3.492127e-07
 -4.712379e-07
 3.711144e-07
 1.571108e-06
 1.792099e-08
 -7.282691e-07
 -1.819807e-06
 -1.592991e-07
 1.100313e-06
 1.676917e-06
 1.946389e-06
 1.646743e-05
 -2.338100e-06
 0.000000e+00
 0.000000e+00
 -7.788374e-07
 -1.317722e-06
 -2.001134e-06
 -2.281513e-07
 7.881098e-07
 1.202401e-07
 1.748412e-05
 1.035545e-07
 1.778652e-05
 4.128671e-07
 1.778074e-05
 -6.842009e-07
 -2.100559e-07
 1.026237e-06
 1.785414e-05
 6.478008e-07
 6.715736e-07
 3.109056e-07
 -2.705995e-08
 8.887858e-08
 8.072345e-07
 -2.986445e-08
 -1.301042e-06
 1.743023e-05
 9.574656e-07
 1.244801e-06
 -1.331536e-06
 -1.002088e-06
 -9.183711e-07
 6.664458e-07
 1.671111e-06
 1.949164e-06
 3.487027e-07
 -6.445986e-07
 4.045084e-08
 3.001091e-07
 2.909683e-07
 1.797271e-07
 4.200783e-07
 1.573393e-06
 3.074883e-08
 -1.194081e-06
 -1.656328e-06
 1.730276e-05
 7.978159e-07
 4.047084e-07
 -1.645457e-05
 -1.750944e-05
 -1.472250e-06
 0.000000e+00
 0.000000e+00
 -8.210152e-07
 -2.825429e-06
 -7.221675e-07
 1.805114e-05
 3.213069e-07
 1.008651e-06
 3.308164e-07
 -1.778257e-07
 2.842884e-07
 -1.280450e-07
 1.590959e-08
 -1.368053e-06
 -2.750413e-07
 -3.305158e-07
 2.021067e-07
 -1.466424e-07
 3.202060e-07
 2.383143e-07
 9.022351e-08
 8.012140e-08
 1.933331e-07
 1.611215e-07
 5.520082e-07
 -3.212175e-07
 -1.481993e-06
 -2.289045e-07
 -1.742086e-05
 2.710402e-07
 4.423604e-07
 1.807363e-05
 6.085239e-07
 3.486853e-07
 -1.734050e-05
 1.218390e-06
 3.137451e-07
 -2.411550e-07
 3.370996e-07
 3.391826e-07
 2.211501e-07
 8.097685e-08
 -1.755398e-05
 -1.518146e-08
 7.836987e-07
 1.748589e-05
 -1.547900e-06
 -1.253393e-06
 -8.050653e-07
 1.204711e-06
 1.193259e-06
 0.000000e+00
 0.000000e+00
 -1.766676e-05
 -8.517909e-07
 1.795560e-05
 -9.970600e-08
 -1.138272e-06
 1.285832e-07
 2.686087e-07
 2.630875e-07
 3.105901e-07
 4.079797e-07
 4.104021e-07
 6.801720e-08
 -1.742216e-07
 -7.949439e-08
 1.742459e-05
 -9.203130e-08