<VTKFile type="UnstructuredGrid"  version="0.1"   >
<UnstructuredGrid>  
<Piece  NumberOfPoints="     2601"  NumberOfCells="     5000">  
<Points>  
<DataArray  type="Float64"  NumberOfComponents="3"  format="ascii">  
 0.000000 0.000000 0.000000 
 0.020000 0.000000 0.000000 
 0.040000 0.000000 0.000000 
 0.060000 0.000000 0.000000 
 0.080000 0.000000 0.000000 
 0.100000 0.000000 0.000000 
 0.120000 0.000000 0.000000 
 0.140000 0.000000 0.000000 
 0.160000 0.000000 0.000000 
 0.180000 0.000000 0.000000 
 0.200000 0.000000 0.000000 
 0.220000 0.000000 0.000000 
 0.240000 0.000000 0.000000 
 0.260000 0.000000 0.000000 
 0.280000 0.000000 0.000000 
 0.300000 0.000000 0.000000 
 0.320000 0.000000 0.000000 
 0.340000 0.000000 0.000000 
 0.360000 0.000000 0.000000 
 0.380000 0.000000 0.000000 
 0.400000 0.000000 0.000000 
 0.420000 0.000000 0.000000 
 0.440000 0.000000 0.000000 
 0.460000 0.000000 0.000000 
 0.480000 0.000000 0.000000 
 0.500000 0.000000 0.000000 
 0.520000 0.000000 0.000000 
 0.540000 0.000000 0.000000 
 0.560000 0.000000 0.000000 
 0.580000 0.000000 0.000000 
 0.600000 0.000000 0.000000 
 0.620000 0.000000 0.000000 
 0.640000 0.000000 0.000000 
 0.660000 0.000000 0.000000 
 0.680000 0.000000 0.000000 
 0.700000 0.000000 0.000000 
 0.720000 0.000000 0.000000 
 0.740000 0.000000 0.000000 
 0.760000 0.000000 0.000000 
 0.780000 0.000000 0.000000 
 0.800000 0.000000 0.000000 
 0.820000 0.000000 0.000000 
 0.840000 0.000000 0.000000 
 0.860000 0.000000 0.000000 
 0.880000 0.000000 0.000000 
 0.900000 0.000000 0.000000 
 0.920000 0.000000 0.000000 
 0.940000 0.000000 0.000000 
 0.960000 0.000000 0.000000 
 0.980000 0.000000 0.000000 
 1.000000 0.000000 0.000000 
 0.000000 0.020000 0.000000 
 0.020000 0.020000 0.000000 
 0.040000 0.020000 0.000000 
 0.060000 0.020000 0.000000 
 0.080000 0.020000 0.000000 
 0.100000 0.020000 0.000000 
 0.120000 0.020000 0.000000 
 0.140000 0.020000 0.000000 
 0.160000 0.020000 0.000000 
 0.180000 0.020000 0.000000 
 0.200000 0.020000 0.000000 
 0.220000 0.020000 0.000000 
 0.240000 0.020000 0.000000 
 0.260000 0.020000 0.000000 
 0.280000 0.020000 0.000000 
 0.300000 0.020000 0.000000 
 0.320000 0.020000 0.000000 
 0.340000 0.020000 0.000000 
 0.360000 0.020000 0.000000 
 0.380000 0.020000 0.000000 
 0.400000 0.020000 0.000000 
 0.420000 0.020000 0.000000 
 0.440000 0.020000 0.000000 
 0.460000 0.020000 0.000000 
 0.480000 0.020000 0.000000 
 0.500000 0.020000 0.000000 
 0.520000 0.020000 0.000000 
 0.540000 0.020000 0.000000 
 0.560000 0.020000 0.000000 
 0.580000 0.020000 0.000000 
 0.600000 0.020000 0.000000 
 0.620000 0.020000 0.000000 
 0.640000 0.020000 0.000000 
 0.660000 0.020000 0.000000 
 0.680000 0.020000 0.000000 
 0.700000 0.020000 0.000000 
 0.720000 0.020000 0.000000 
 0.740000 0.020000 0.000000 
 0.760000 0.020000 0.000000 
 0.780000 0.020000 0.000000 
 0.800000 0.020000 0.000000 
 0.820000 0.020000 0.000000 
 0.840000 0.020000 0.000000 
 0.860000 0.020000 0.000000 
 0.880000 0.020000 0.000000 
 0.900000 0.020000 0.000000 
 0.920000 0.020000 0.000000 
 0.940000 0.020000 0.000000 
 0.960000 0.020000 0.000000 
 0.980000 0.020000 0.000000 
 1.000000 0.020000 0.000000 
 0.000000 0.040000 0.000000 
 0.020000 0.040000 0.000000 
 0.040000 0.040000 0.000000 
 0.060000 0.040000 0.000000 
 0.080000 0.040000 0.000000 
 0.100000 0.040000 0.000000 
 0.120000 0.040000 0.000000 
 0.140000 0.040000 0.000000 
 0.160000 0.040000 0.000000 
 0.180000 0.040000 0.000000 
 0.200000 0.040000 0.000000 
 0.220000 0.040000 0.000000 
 0.240000 0.040000 0.000000 
 0.260000 0.040000 0.000000 
 0.280000 0.040000 0.000000 
 0.300000 0.040000 0.000000 
 0.320000 0.040000 0.000000 
 0.340000 0.040000 0.000000 
 0.360000 0.040000 0.000000 
 0.380000 0.040000 0.000000 
 0.400000 0.040000 0.000000 
 0.420000 0.040000 0.000000 
 0.440000 0.040000 0.000000 
 0.460000 0.040000 0.000000 
 0.480000 0.040000 0.000000 
 0.500000 0.040000 0.000000 
 0.520000 0.040000 0.000000 
 0.540000 0.040000 0.000000 
 0.560000 0.040000 0.000000 
 0.580000 0.040000 0.000000 
 0.600000 0.040000 0.000000 
 0.620000 0.040000 0.000000 
 0.640000 0.040000 0.000000 
 0.660000 0.040000 0.000000 
 0.680000 0.040000 0.000000 
 0.700000 0.040000 0.000000 
 0.720000 0.040000 0.000000 
 0.740000 0.040000 0.000000 
 0.760000 0.040000 0.000000 
 0.780000 0.040000 0.000000 
 0.800000 0.040000 0.000000 
 0.820000 0.040000 0.000000 
 0.840000 0.040000 0.000000 
 0.860000 0.040000 0.000000 
 0.880000 0.040000 0.000000 
 0.900000 0.040000 0.000000 
 0.920000 0.040000 0.000000 
 0.940000 0.040000 0.000000 
 0.960000 0.040000 0.000000 
 0.980000 0.040000 0.000000 
 1.000000 0.040000 0.000000 
 0.000000 0.060000 0.000000 
 0.020000 0.060000 0.000000 
 0.040000 0.060000 0.000000 
 0.060000 0.060000 0.000000 
 0.080000 0.060000 0.000000 
 0.100000 0.060000 0.000000 
 0.120000 0.060000 0.000000 
 0.140000 0.060000 0.000000 
 0.160000 0.060000 0.000000 
 0.180000 0.060000 0.000000 
 0.200000 0.060000 0.000000 
 0.220000 0.060000 0.000000 
 0.240000 0.060000 0.000000 
 0.260000 0.060000 0.000000 
 0.280000 0.060000 0.000000 
 0.300000 0.060000 0.000000 
 0.320000 0.060000 0.000000 
 0.340000 0.060000 0.000000 
 0.360000 0.060000 0.000000 
 0.380000 0.060000 0.000000 
 0.400000 0.060000 0.000000 
 0.420000 0.060000 0.000000 
 0.440000 0.060000 0.000000 
 0.460000 0.060000 0.000000 
 0.480000 0.060000 0.000000 
 0.500000 0.060000 0.000000 
 0.520000 0.060000 0.000000 
 0.540000 0.060000 0.000000 
 0.560000 0.060000 0.000000 
 0.580000 0.060000 0.000000 
 0.600000 0.060000 0.000000 
 0.620000 0.060000 0.000000 
 0.640000 0.060000 0.000000 
 0.660000 0.060000 0.000000 
 0.680000 0.060000 0.000000 
 0.700000 0.060000 0.000000 
 0.720000 0.060000 0.000000 
 0.740000 0.060000 0.000000 
 0.760000 0.060000 0.000000 
 0.780000 0.060000 0.000000 
 0.800000 0.060000 0.000000 
 0.820000 0.060000 0.000000 
 0.840000 0.060000 0.000000 
 0.860000 0.060000 0.000000 
 0.880000 0.060000 0.000000 
 0.900000 0.060000 0.000000 
 0.920000 0.060000 0.000000 
 0.940000 0.060000 0.000000 
 0.960000 0.060000 0.000000 
 0.980000 0.060000 0.000000 
 1.000000 0.060000 0.000000 
 0.000000 0.080000 0.000000 
 0.020000 0.080000 0.000000 
 0.040000 0.080000 0.000000 
 0.060000 0.080000 0.000000 
 0.080000 0.080000 0.000000 
 0.100000 0.080000 0.000000 
 0.120000 0.080000 0.000000 
 0.140000 0.080000 0.000000 
 0.160000 0.080000 0.000000 
 0.180000 0.080000 0.000000 
 0.200000 0.080000 0.000000 
 0.220000 0.080000 0.000000 
 0.240000 0.080000 0.000000 
 0.260000 0.080000 0.000000 
 0.280000 0.080000 0.000000 
 0.300000 0.080000 0.000000 
 0.320000 0.080000 0.000000 
 0.340000 0.080000 0.000000 
 0.360000 0.080000 0.000000 
 0.380000 0.080000 0.000000 
 0.400000 0.080000 0.000000 
 0.420000 0.080000 0.000000 
 0.440000 0.080000 0.000000 
 0.460000 0.080000 0.000000 
 0.480000 0.080000 0.000000 
 0.500000 0.080000 0.000000 
 0.520000 0.080000 0.000000 
 0.540000 0.080000 0.000000 
 0.560000 0.080000 0.000000 
 0.580000 0.080000 0.000000 
 0.600000 0.080000 0.000000 
 0.620000 0.080000 0.000000 
 0.640000 0.080000 0.000000 
 0.660000 0.080000 0.000000 
 0.680000 0.080000 0.000000 
 0.700000 0.080000 0.000000 
 0.720000 0.080000 0.000000 
 0.740000 0.080000 0.000000 
 0.760000 0.080000 0.000000 
 0.780000 0.080000 0.000000 
 0.800000 0.080000 0.000000 
 0.820000 0.080000 0.000000 
 0.840000 0.080000 0.000000 
 0.860000 0.080000 0.000000 
 0.880000 0.080000 0.000000 
 0.900000 0.080000 0.000000 
 0.920000 0.080000 0.000000 
 0.940000 0.080000 0.000000 
 0.960000 0.080000 0.000000 
 0.980000 0.080000 0.000000 
 1.000000 0.080000 0.000000 
 0.000000 0.100000 0.000000 
 0.020000 0.100000 0.000000 
 0.040000 0.100000 0.000000 
 0.060000 0.100000 0.000000 
 0.080000 0.100000 0.000000 
 0.100000 0.100000 0.000000 
 0.120000 0.100000 0.000000 
 0.140000 0.100000 0.000000 
 0.160000 0.100000 0.000000 
 0.180000 0.100000 0.000000 
 0.200000 0.100000 0.000000 
 0.220000 0.100000 0.000000 
 0.240000 0.100000 0.000000 
 0.260000 0.100000 0.000000 
 0.280000 0.100000 0.000000 
 0.300000 0.100000 0.000000 
 0.320000 0.100000 0.000000 
 0.340000 0.100000 0.000000 
 0.360000 0.100000 0.000000 
 0.380000 0.100000 0.000000 
 0.400000 0.100000 0.000000 
 0.420000 0.100000 0.000000 
 0.440000 0.100000 0.000000 
 0.460000 0.100000 0.000000 
 0.480000 0.100000 0.000000 
 0.500000 0.100000 0.000000 
 0.520000 0.100000 0.000000 
 0.540000 0.100000 0.000000 
 0.560000 0.100000 0.000000 
 0.580000 0.100000 0.000000 
 0.600000 0.100000 0.000000 
 0.620000 0.100000 0.000000 
 0.640000 0.100000 0.000000 
 0.660000 0.100000 0.000000 
 0.680000 0.100000 0.000000 
 0.700000 0.100000 0.000000 
 0.720000 0.100000 0.000000 
 0.740000 0.100000 0.000000 
 0.760000 0.100000 0.000000 
 0.780000 0.100000 0.000000 
 0.800000 0.100000 0.000000 
 0.820000 0.100000 0.000000 
 0.840000 0.100000 0.000000 
 0.860000 0.100000 0.000000 
 0.880000 0.100000 0.000000 
 0.900000 0.100000 0.000000 
 0.920000 0.100000 0.000000 
 0.940000 0.100000 0.000000 
 0.960000 0.100000 0.000000 
 0.980000 0.100000 0.000000 
 1.000000 0.100000 0.000000 
 0.000000 0.120000 0.000000 
 0.020000 0.120000 0.000000 
 0.040000 0.120000 0.000000 
 0.060000 0.120000 0.000000 
 0.080000 0.120000 0.000000 
 0.100000 0.120000 0.000000 
 0.120000 0.120000 0.000000 
 0.140000 0.120000 0.000000 
 0.160000 0.120000 0.000000 
 0.180000 0.120000 0.000000 
 0.200000 0.120000 0.000000 
 0.220000 0.120000 0.000000 
 0.240000 0.120000 0.000000 
 0.260000 0.120000 0.000000 
 0.280000 0.120000 0.000000 
 0.300000 0.120000 0.000000 
 0.320000 0.120000 0.000000 
 0.340000 0.120000 0.000000 
 0.360000 0.120000 0.000000 
 0.380000 0.120000 0.000000 
 0.400000 0.120000 0.000000 
 0.420000 0.120000 0.000000 
 0.440000 0.120000 0.000000 
 0.460000 0.120000 0.000000 
 0.480000 0.120000 0.000000 
 0.500000 0.120000 0.000000 
 0.520000 0.120000 0.000000 
 0.540000 0.120000 0.000000 
 0.560000 0.120000 0.000000 
 0.580000 0.120000 0.000000 
 0.600000 0.120000 0.000000 
[...]
<PointData  Scalars="U"> 
<DataArray  type="Float64"  Name="U"  format="ascii"> 
 0.000000e+00
 0.000000e+00
 0.000000e+00
 0.000000e+00
 0.000000e+00
 0.000000e+00
 0.000000e+00
 0.000000e+00
 0.000000e+00
 0.000000e+00
 0.000000e+00
 0.000000e+00
 0.000000e+00
 0.000000e+00
 0.000000e+00
 0.000000e+00
 0.000000e+00
 0.000000e+00
 0.000000e+00
 0.000000e+00
 0.000000e+00
 0.000000e+00
 0.000000e+00
 0.000000e+00
 0.000000e+00
 0.000000e+00
 0.000000e+00
 0.000000e+00
 0.000000e+00
 0.000000e+00
 0.000000e+00
 0.000000e+00
 0.000000e+00
 0.000000e+00
 0.000000e+00
 0.000000e+00
 0.000000e+00
 0.000000e+00
 0.000000e+00
 0.000000e+00
 0.000000e+00
 0.000000e+00
 0.000000e+00
 0.000000e+00
 0.000000e+00
 0.000000e+00
 0.000000e+00
 0.000000e+00
 0.000000e+00
 0.000000e+00
 0.000000e+00
 0.000000e+00
 -7.959647e-09
 -1.593081e-08
 -2.415131e-08
 -3.330215e-08
 -4.462158e-08
 -5.950627e-08
 -7.743768e-08
 -9.127348e-08
 -8.583789e-08
 -5.174518e-08
 6.955406e-10
 5.109954e-08
 7.856155e-08
 7.413428e-08
 5.020576e-08
 2.437100e-08
 5.948966e-09
 -4.081827e-09
 -8.578417e-09
 -1.054127e-08
 -1.135956e-08
 -1.059733e-08
 -6.634343e-09
 2.110380e-09
 1.468034e-08
 2.322523e-08
 1.352866e-08
 -1.718487e-08
 -4.700756e-08
 -5.637832e-08
 -4.976966e-08
 -3.940525e-08
 -3.118888e-08
 -2.329584e-08
 2.190892e-09
 1.347999e-07
 1.208855e-06
 -3.698830e-08
 -8.869738e-07
 -2.272026e-07
 -2.090181e-08
 5.339898e-08
 2.361225e-08
 -7.488113e-09
 5.121551e-08
 2.281960e-07
 1.302124e-06
 5.905816e-08
 -7.188863e-07
 0.000000e+00
 0.000000e+00
 -1.594548e-08
 -3.168777e-08
 -4.747575e-08
 -6.450359e-08
 -8.546138e-08
 -1.148487e-07
 -1.570322e-07
 -2.026571e-07
 -2.047067e-07
 -1.231992e-07
 3.169307e-09
 1.270154e-07
 1.937318e-07
 1.683533e-07
 1.004713e-07
 3.985562e-08
 2.907241e-09
 -1.366194e-08
 -1.937822e-08
 -2.190113e-08
 -2.409077e-08
 -2.437252e-08
 -1.839015e-08
 -8.059518e-10
 3.163758e-08
 6.651996e-08
 5.395107e-08
 -3.591239e-08
 -1.200832e-07
 -1.296531e-07
 -1.017619e-07
 -7.555816e-08
 -6.027632e-08
 -5.630978e-08
 -6.440945e-08
 -8.825097e-08
 -6.410474e-08
 -1.753614e-05
 -1.519430e-07
 -2.054629e-07
 6.124418e-08
 2.376645e-07
 4.523551e-08
 -1.300050e-07
 2.571113e-08
 1.686392e-07
 1.169622e-07
 -1.740970e-05
 3.672341e-08
 0.000000e+00
 0.000000e+00
 -2.420873e-08
 -4.755420e-08
 -6.981083e-08
 -9.211383e-08
 -1.180756e-07
 -1.561072e-07
 -2.244116e-07
 -3.563364e-07
 -4.280598e-07
 -2.357632e-07
 5.401002e-09
 2.601443e-07
 4.230693e-07
 3.012596e-07
 1.368412e-07
 2.863784e-08
 -2.143307e-08
 -3.362050e-08
 -3.248304e-08
 -3.282280e-08
 -3.826927e-08
 -4.424408e-08
 -4.189788e-08
 -2.022919e-08
 3.721836e-08
 1.571943e-07
 2.009391e-07
 -6.451465e-08
 -2.943812e-07
 -2.357698e-07
 -1.459305e-07
 -1.000387e-07
 -7.834539e-08
 -7.717778e-08
 -1.182147e-07
 -2.801769e-07
 -9.289528e-07
 -5.509145e-08
 1.116700e-06
 -1.005387e-06
 1.417377e-07
 9.585903e-07
 1.349670e-07
 -1.164746e-06
 -7.140996e-08
 5.511687e-07
 -7.639643e-07
 -2.090081e-08
 1.219332e-06
 0.000000e+00
 0.000000e+00
 -3.344015e-08
 -6.472756e-08
 -9.248304e-08
 -1.167905e-07
 -1.401343e-07
 -1.701029e-07
 -2.297606e-07
 -4.036774e-07
 -1.500005e-06
 -3.110828e-07
 -4.192915e-07
 3.155848e-07
 1.107660e-06
 3.992501e-07
 1.132737e-07
 -4.520505e-08
 -8.413026e-08
 -6.482725e-08
 -4.218750e-08
 -3.723432e-08
 -5.124853e-08
 -7.225279e-08
 -8.398229e-08
 -7.314352e-08
 -1.933286e-08
 1.547173e-07
 1.240052e-06
 -4.660660e-08
 -9.270348e-07
 -2.858423e-07
 -1.432881e-07
 -1.041233e-07
 -7.961848e-08
 -6.247145e-08
 -7.788593e-08
 -1.586623e-07
 -2.208139e-07
 1.808317e-08
 3.229543e-07
 2.820560e-07
 1.765322e-05
 1.831607e-07
 2.886526e-07
 2.309255e-07
 1.735423e-05
 -4.298838e-07
 -4.203879e-07
 -1.823755e-07
 6.218905e-08
 0.000000e+00
 0.000000e+00
 -4.495737e-08
 -8.567414e-08
 -1.189681e-07
 -1.431308e-07
 -1.575069e-07
 -1.614309e-07
 -1.523325e-07
 -1.192390e-07
 -1.140474e-07
 1.740537e-05
 -1.953986e-08
 1.755630e-05
 2.168665e-07
 2.830869e-07
 -1.289615e-08
 -2.594713e-07
 -1.998528e-07
 -9.287870e-08
 -3.150824e-08
 -2.021653e-08
 -5.652450e-08
 -1.105636e-07
 -1.482104e-07
 -1.625908e-07
 -1.654399e-07
 -1.744404e-07
 -1.255972e-07
 -1.751768e-05
 3.028053e-08
 -3.201936e-09
 -6.963525e-08
 -1.046258e-07
 -7.827007e-08
 -1.768653e-08
 3.487608e-08
 3.521226e-08
 1.370281e-08
 1.070943e-07
 3.769738e-07
 1.070552e-06
 1.736833e-07
 -1.081913e-06
 2.719614e-07
 2.110396e-06
 -7.114206e-08
 -2.212823e-06
 -4.465809e-07
 -2.673186e-07
 -2.372896e-07
 0.000000e+00
 0.000000e+00
 -6.091204e-08
 -1.143145e-07
 -1.547772e-07
 -1.792693e-07
 -1.850815e-07
 -1.648656e-07
 -9.440983e-08
 1.113580e-07
 8.408591e-07
 1.478330e-07
 -4.600730e-07
 -2.056836e-07
 -1.164634e-06
 1.031878e-06
 -1.016244e-07
 -9.515726e-07
 -2.788387e-07
 -7.417516e-08
 2.903617e-08
 5.105813e-08
 -4.309495e-08
 -1.715668e-07
 -2.387275e-07
 -2.637878e-07
 -3.074469e-07
 -4.713402e-07
 -1.138106e-06
 -1.213512e-07
 1.524607e-06
 4.193112e-07
 -6.144664e-08
 -1.718009e-07
 -1.128447e-07
 3.209642e-08
 2.116946e-07
 2.812213e-07
 1.066989e-07
 2.064787e-08
 2.154153e-07
 3.546232e-07
 1.367806e-07
 -1.273995e-07
 -5.587290e-08
 1.074928e-07
 -1.753604e-05
 -1.944145e-07
 9.138240e-07
 -1.781212e-07
 -8.911944e-07
 0.000000e+00
 0.000000e+00
 -8.477878e-08
 -1.563638e-07
 -2.066777e-07
 -2.334564e-07
 -2.364499e-07
 -2.112454e-07
 -1.423523e-07
 -3.511692e-09
 1.410974e-07
 5.626106e-08
 -8.719937e-08
 -2.276980e-07
 -3.726938e-07
 -2.524991e-07
 -1.758436e-05
 -6.913336e-08
 -6.473726e-08
 6.060436e-09
 1.590783e-07
 2.699461e-07
 7.434066e-09
 -3.226686e-07
 -3.738174e-07
 -3.491969e-07
 -3.564396e-07
 -4.346806e-07
 -5.606300e-07
 -1.186322e-06
 1.498925e-06
 1.057354e-06
 -6.425958e-07
 -3.195757e-07
 -2.515448e-07
 6.307040e-08
 3.599321e-07
 1.320792e-06
 1.849892e-07
 -4.980318e-07
 1.125844e-07
 1.693743e-07
 6.073305e-08
 -1.022954e-07
 -3.078317e-07
 -9.872039e-07
 -2.015652e-07
 9.739315e-07
 -5.788785e-08
 -1.754263e-05
 -4.741868e-09
 0.000000e+00
 0.000000e+00
 -1.228423e-07
 -2.207884e-07
 -2.825072e-07
 -3.107639e-07
 -3.141181e-07
 -2.984945e-07
 -2.626484e-07
 -2.077835e-07
 -1.633130e-07
 -1.506409e-07
 -1.299459e-07
 -1.563392e-07
 -3.449771e-07
 -9.978316e-07
 -8.004887e-08
 1.243536e-06
 1.730491e-07
 -3.749884e-09
 1.322983e-07
 1.459069e-06
 2.407916e-07
 -9.364422e-07
 -5.147710e-07
 -4.030952e-07
 -3.344332e-07
 -2.875381e-07
 -2.098340e-07
 -1.232638e-07
 1.748883e-05
 -1.740075e-05
 2.885352e-08
 -1.860809e-07
 -1.237988e-06
 5.757395e-08
 7.749816e-07
 -9.877386e-07
 -1.736448e-05
 9.590611e-07
 3.059311e-07
 1.466008e-07
 3.119258e-08
 -9.937186e-08
 -2.625273e-07
 -4.057573e-07
 -3.256545e-07
 -3.720751e-07
 -1.103057e-06
 -4.810318e-08
 1.383333e-06
 0.000000e+00
 0.000000e+00
 -1.885414e-07
 -3.240479e-07
 -3.927252e-07
 -4.124552e-07
 -4.092769e-07
 -4.052651e-07
 -4.087022e-07
 -4.036162e-07
 -4.133549e-07
 -3.926656e-07
 -1.347077e-07
 8.073418e-08
 -4.463645e-08
 -2.140755e-07
 -5.520643e-08
 1.768480e-07
 1.054986e-07
 -1.083171e-07
 -1.087200e-06
 3.694875e-07
 -1.644803e-05
 -1.623898e-07
 -5.449462e-07
 -4.279605e-07
 -2.812545e-07
 -1.635163e-07
 1.741828e-08
 5.705605e-07
 -9.072738e-07
 -1.268796e-06
 1.144275e-06
 2.820341e-07
 1.816175e-07
 1.767512e-05
 9.405462e-08
 -8.213103e-07
 1.729964e-05
 1.218509e-06
 2.696186e-07
 1.106437e-07
 2.051339e-08
 -6.777263e-08
 -1.552409e-07
 -2.204679e-07
 -2.670930e-07
 -4.600546e-07
 -1.588950e-06
 -9.766782e-08
 9.629187e-07
 0.000000e+00
 0.000000e+00
 -3.156842e-07
 -4.997428e-07
 -5.527319e-07
 -5.362403e-07
 -5.037216e-07
 -4.977993e-07
 -5.677221e-07
 -6.129588e-07
 -5.074433e-07
 -1.427563e-06
 -2.142106e-07
 8.314071e-07
 3.209225e-07
 5.961860e-08
 -2.518263e-08
 -6.282066e-09
 -1.437644e-08
 -3.234514e-08
 -5.279297e-08
 1.797032e-05
 1.159479e-06
 2.836512e-07
 -1.050227e-06
 -3.883139e-07
 -1.893401e-07
 -8.514240e-08
 9.347965e-09
 1.807746e-08
 -2.303044e-07
 -2.140482e-07
 1.812325e-07
 4.597416e-07
 1.103705e-06
 3.429469e-07
 1.570059e-07
 4.917729e-07
 -9.179739e-07
 -1.262566e-06
 -4.966059e-08
 4.091850e-08
 1.480638e-08
 -3.335992e-08
 -6.908685e-08
 -8.691114e-08
 -9.207904e-08
 -8.409166e-08
 -9.812981e-08
 1.742758e-05
 1.739291e-08
 0.000000e+00
 0.000000e+00
 -6.053931e-07
 -8.149268e-07
 -7.786341e-07
 -6.738388e-07
 -5.731792e-07
 -5.168909e-07
 -5.904291e-07
 -1.589113e-06
 -2.417783e-07
 5.191480e-07
 1.628593e-05
 -4.504329e-08
 7.852735e-07
 7.018416e-08
 -1.004529e-07
 -1.273179e-07
 -1.153645e-07
 -3.476952e-08
 4.578539e-07
 -5.167794e-07
 -1.902044e-05
 -1.764274e-05
 -3.003563e-08
 -5.285859e-08
 -2.849898e-08
 -9.627666e-09
 2.031743e-09
 -1.999752e-08
 -6.905317e-08
 -3.199822e-08
 1.172176e-07
 2.813340e-07
 3.585000e-07
 1.310508e-07
 -4.277674e-08
 -1.738874e-05
 3.526810e-08
 -1.244069e-07
 -2.839418e-08
 5.707002e-08
 2.519384e-08
 -1.687667e-08
 -1.945604e-09
 3.321053e-08
 7.974954e-08
 2.391161e-07
 9.057165e-07
 4.833532e-08
 -1.207865e-06
 0.000000e+00
 0.000000e+00
 -1.433446e-06
 -1.351892e-06
 -1.054026e-06
 -8.027113e-07
 -6.032376e-07
 -4.360777e-07
 -2.731951e-07
 -1.407278e-07
 1.757634e-05
 8.499396e-07
 -4.526691e-09
 1.611009e-05
 -3.872211e-07
 -2.976860e-07
 -2.918483e-07
 -2.680505e-07
 -2.543504e-07
 -2.773556e-07
 -5.050251e-07
 -1.566075e-06
 -1.470545e-06
 9.522647e-07
 1.431351e-06
 3.095918e-07
 1.334035e-07
 6.757631e-08
 3.016862e-08
 5.579025e-10
 -1.561827e-08
 6.023060e-09
 6.416868e-08
 1.136873e-07
 8.098885e-08
 -1.346911e-07
 -8.165995e-07
 1.135584e-07
 1.411525e-06
 2.743062e-07
 1.601837e-07
 2.067133e-07
 3.834532e-08
 -8.377534e-08
 5.394988e-08
 1.603467e-07
 1.664685e-07
 2.187828e-07
 3.254331e-07
 1.597089e-07
 -8.520730e-08
 0.000000e+00
 0.000000e+00
 -3.483505e-06
 -1.924158e-06
 -1.264078e-06
 -8.783431e-07
 -6.005512e-07
 -3.456007e-07
 -1.698317e-09
 8.301019e-07
 1.761294e-07
 -8.075008e-07
 8.113141e-07
 -1.529336e-07
 -1.655065e-06
 -7.204302e-07
 -4.995457e-07
 -3.964622e-07
 -3.657311e-07
 -4.224524e-07
 -6.574804e-07
 -9.542740e-07
 -8.149276e-07
 -1.670488e-07
 3.066414e-07
 3.358303e-07
 2.194899e-07
 1.220901e-07
 5.436538e-08
 1.278211e-08
 -5.525667e-09
 -1.160169e-09
 1.625435e-08
 2.246878e-08
 -1.406742e-08
 -1.087916e-07
 -1.420723e-07
 1.917479e-07
 4.956747e-07
 2.099906e-07
 2.107404e-08
 1.166223e-06
 9.576971e-08
 -5.817826e-07
 2.309316e-07
 4.222167e-07
 1.948171e-07
 2.004185e-08
 1.911344e-07
 2.997988e-07
 1.184192e-07
 0.000000e+00
 0.000000e+00
 -3.668510e-06
 -1.880422e-06
 -1.240930e-06
 -8.566940e-07
 -5.725313e-07
 -3.166903e-07
 -4.298003e-08
 1.862253e-07
 1.288204e-07
 4.942040e-08
 2.687990e-07
 1.168141e-06
 -3.403276e-07
 -1.178206e-06
 -5.338612e-07
 -4.765634e-07
 -4.096216e-07
 -3.611061e-07
 -6.333573e-07
 -8.846370e-07
 -7.840750e-07
 -4.630008e-07
 5.838121e-08
 3.665829e-07
 2.842449e-07
 1.437714e-07
 5.317323e-08
 2.545702e-09
 -1.985471e-08
 -2.423587e-08
 -2.196257e-08
 -2.444635e-08
 -3.953080e-08
 -5.643937e-08
 -1.160893e-08
 2.171351e-07
 1.347792e-06
 -2.391595e-09
 -1.041007e-06
 -3.720401e-07
 -1.730579e-05
 5.631988e-07
 6.866811e-07
 1.654602e-06
 2.411090e-07
 -7.034014e-07
 6.249489e-08
 1.316523e-06
 2.167799e-07
 0.000000e+00
 0.000000e+00
 -1.140148e-06
 -1.263084e-06
 -1.000639e-06
 -7.456886e-07
 -5.186389e-07
 -3.106965e-07
 -1.256835e-07
 -2.017715e-09
 2.006006e-08
 -4.848505e-09
 -2.684283e-08
 -2.023518e-10
 -1.736792e-05
 1.992170e-07
 -1.266523e-07
 -6.356784e-07
 -6.368460e-07
 6.231473e-07
 -5.262617e-07
 -1.362293e-06
 -7.580732e-07
 -1.515330e-06
 -2.803234e-08
 9.520750e-07
 3.114334e-07
 1.097922e-07
 1.293744e-08
 -3.567945e-08
 -5.254786e-08
 -5.398180e-08
 -5.506132e-08
 -5.662149e-08
 -5.346823e-08
 -5.398623e-08
 -6.350943e-08
 -8.160500e-08
 -6.602634e-08
 -1.760853e-05
 -4.648502e-07
 -2.148330e-06
 2.228409e-07
 2.575586e-06
 8.823384e-07
 4.933167e-07
 -1.725600e-05
 -6.810145e-09
 -1.319902e-07
 -8.552986e-08
 -1.748794e-05
 0.000000e+00
 0.000000e+00
 -5.275867e-07
 -7.524772e-07
 -7.299127e-07
 -6.047332e-07
 -4.475749e-07
 -2.886960e-07
 -1.520096e-07
 -6.369373e-08
 -4.181747e-08
 -9.129780e-08
 -2.581314e-07
 -8.522544e-07
 3.077850e-07
 2.838021e-06
 1.223109e-06
 -1.394108e-06
 -1.623179e-06
 -6.571480e-07
 -1.781211e-05
 -2.172061e-07
 -1.382640e-07
 -6.343849e-08
 1.747420e-05
 5.523623e-08
 7.046005e-08
 -3.211956e-09
 -7.175422e-08
 -1.064836e-07
 -1.009600e-07
 -8.087953e-08
 -8.596040e-08
 -9.755967e-08
 -6.283370e-08
 -3.903043e-08
 -1.159613e-07
 -3.392083e-07
 -1.012552e-06
 -1.097958e-07
 1.107340e-06
 -5.064938e-08
 1.776499e-05
 7.705087e-07
 6.103085e-07
 -3.051136e-07
 9.158457e-08
 9.571545e-07
 -3.277848e-07
 -1.112893e-06
 -3.302070e-07
 0.000000e+00
 0.000000e+00
 -3.059683e-07
 -4.942755e-07
 -5.433517e-07
 -4.903987e-07
 -3.777352e-07
 -2.454997e-07
 -1.287389e-07
 -5.472973e-08
 -3.721415e-08
 -8.617093e-08
 -2.180859e-07
 -3.174816e-07
 -2.678386e-08
 1.243250e-06
 -1.761166e-05
 -1.866702e-05
 -6.959357e-07
 -1.081213e-06
 -4.381165e-08
 1.355774e-06
 4.782810e-07
 9.983161e-07
 9.669813e-08
 -1.192904e-06
 -1.573699e-07
 -1.174472e-07
 -1.954437e-07
 -2.229428e-07
 -1.692720e-07
 -6.986425e-08
 -9.764367e-08
 -2.141636e-07
 -6.670341e-08
 9.514424e-08
 -4.637979e-08
 -3.262662e-07
 -4.627114e-07
 9.659072e-09
 4.806879e-07
 -2.756491e-08
 2.959350e-07
 -5.447006e-08
 4.234081e-07
 1.273837e-06
 -2.820687e-08
 -8.999963e-07
 -5.353555e-07
 -6.043564e-07
 -3.777273e-07
 0.000000e+00
 0.000000e+00
 -2.236434e-07
 -3.848668e-07
 -4.577119e-07
 -4.357620e-07
 -3.264451e-07
 -1.858403e-07
 -5.992212e-08
 1.209580e-08
 2.935873e-08
 1.205025e-08
 -1.146379e-07
 -3.245297e-07
 -5.980329e-07
 -1.405662e-06
 -1.874353e-05
 8.386858e-07
 1.255270e-06
 2.584252e-07
 2.763130e-07
 4.513254e-07
 4.485231e-07
 4.042095e-07
 1.855285e-07
 1.072211e-08
 5.726093e-08
 -1.462918e-07
 -3.956406e-07
 -4.217471e-07
 -3.187156e-07
 7.360112e-08
 2.051273e-07
 -1.188592e-06
 -2.042785e-07
 7.023066e-07
 8.518639e-08
 -2.040764e-07
 -1.272494e-06
 1.387991e-07
 1.182968e-06
 5.457946e-07
 1.763967e-05
 2.923328e-08
 1.526287e-07
 4.431748e-08
 -1.758207e-05
 -2.939030e-07
 -5.804092e-07
 -6.072815e-07
 -3.156963e-07
 0.000000e+00
 0.000000e+00
 -2.121073e-07
 -3.668237e-07
 -4.660899e-07
 -4.824578e-07
 -3.000095e-07
 -1.131585e-07
 6.977887e-08
 1.457639e-07
 9.620710e-08
 2.497553e-07
 8.687697e-08
 -3.641062e-07
 -7.555678e-07
 -1.638814e-06
 -7.706974e-07
 -1.077326e-08
 5.162388e-07
 1.194751e-06
 4.781945e-07
 3.137483e-07
 2.030769e-07
 1.550516e-07
 1.564576e-07
 2.444220e-07
 1.274758e-06
 -4.945991e-08
 -9.933008e-07
 -4.958288e-07
 -1.344415e-06
 1.949904e-07
 2.203868e-06
 2.266468e-07
 1.663532e-05
 -1.891839e-07
 4.309131e-08
 1.442666e-07
 1.950329e-07
 1.772096e-05
 3.319417e-07
 8.007492e-07
 -2.426143e-07
 -1.272110e-06
 9.117427e-07
 -8.628219e-07
 1.531242e-07
 1.012856e-06
 -7.691305e-07
 -1.460672e-06
 -2.855488e-07
 0.000000e+00
 0.000000e+00
 -2.644222e-07
 -4.377210e-07
 -3.875563e-07
 -1.285250e-06
 -1.956631e-07
 -4.557731e-07
 1.395700e-07
 7.427486e-07
 -8.770500e-07
 1.299269e-06
 8.131555e-07
 -7.525840e-07
 -3.993898e-07
 -6.272117e-07
 -4.654271e-07
 4.776639e-08
 1.771025e-05
 2.485656e-07
 3.141543e-07
 2.097076e-07
 -1.332421e-07
 -1.400280e-07
 1.053590e-07
 9.280461e-08
 6.798838e-08
 -1.740959e-05
 4.553859e-08
 2.650468e-08
 1.740758e-08
 1.750859e-05
 2.294034e-07
 -1.657424e-05
 -2.743320e-09
 -1.221544e-06
 3.480034e-08
 4.515284e-07
 1.262200e-06
 4.280169e-07
 -1.128683e-06
 -4.444113e-07
 -1.608477e-06
 -5.555518e-07
 3.027418e-07
 -1.789823e-05
 -1.306873e-06
 -1.716738e-05
 1.202309e-06
 3.229571e-07
 1.750304e-05
 0.000000e+00
 0.000000e+00
 -2.437329e-07
 -1.347376e-06
 -3.444537e-08
 8.395556e-07
 1.766670e-05
 6.803777e-09
 1.743120e-05
 -6.647721e-08
 -1.094365e-07
 1.734814e-05
 -1.755759e-05
 5.877593e-08
 1.074194e-06
 -1.323078e-07
 -7.150755e-07
 7.342252e-07
 5.175445e-08
 -1.170463e-06
 6.368200e-08
 1.111118e-06
 -1.307249e-06
 -9.401226e-07
 5.656372e-07
 -5.165599e-08
 -7.718811e-07
 1.387424e-07
 1.487482e-06
 5.395812e-07
 9.535330e-07
 -1.341153e-07
 -2.038562e-06
 -9.809516e-08
 1.127100e-06
 1.392203e-07
 3.352455e-07
 5.017507e-07
 6.851272e-07
 1.504875e-06
 -8.916722e-08
 -1.005760e-06
 -4.530400e-07
 1.692339e-05
 -1.209291e-06
 -3.949518e-07
 3.940439e-07
 1.801459e-05
 2.016114e-06
 1.369170e-06
 2.089930e-07
 0.000000e+00
 0.000000e+00
 5.964202e-08
 1.050192e-07
 1.775501e-05
 9.905083e-07
 2.692763e-07
 -4.287471e-07
 -2.639362e-07
 -1.331487e-06
 2.397866e-07
 -1.143513e-06
 -1.501394e-06
 9.036278e-07
 9.256206e-08
 -1.735184e-05
 2.725116e-07
 3.271044e-07
 -1.236464e-08
 -3.016114e-07
 -4.202527e-09
 1.145505e-07
 -1.761044e-05
 1.729486e-05
 -1.503355e-07
 -1.212037e-07
 -1.175599e-07
 1.836362e-07
 4.869397e-07
 4.392140e-07
 2.814697e-07
 -5.435561e-08
 -3.540833e-07
 -2.236742e-07
 -9.969825e-07
 2.291885e-07
 1.036038e-06
 3.984995e-07
 2.203727e-07
 1.343700e-07
 -1.738977e-05
 1.760194e-07
 7.541321e-07
 -1.566508e-07
 -1.482533e-06
 -3.032925e-07
 6.547189e-07
 3.798506e-07
 5.844684e-07
 4.380393e-07
 -5.174926e-07
 0.000000e+00
 0.000000e+00
 3.003165e-07
 1.060472e-06
 3.005840e-07
 -8.991081e-07
 1.839301e-08
 -4.913432e-08
 -2.099335e-07
 -3.473642e-07
 -3.229267e-07
 -5.091143e-07
 -5.232950e-07
 -3.092603e-07
 -7.834858e-07
 1.973969e-07
 1.666842e-06
 6.094751e-07
 -4.348920e-08
 -1.388896e-06
 8.661968e-07
 5.958516e-08
 1.108017e-07
 1.042119e-06
 -1.170244e-06
 -1.665733e-07
 6.357996e-08
 3.117626e-07
 4.473374e-07
 1.846953e-07
 -7.481701e-08
 -1.506402e-08
 1.265717e-07
 2.590227e-07
 2.386250e-07
 1.760858e-05
 6.870879e-08
 1.130175e-08
 -1.969430e-07
 -8.613560e-07
 5.855269e-08
 1.447783e-06
 4.451599e-07
 1.712792e-07
 9.524276e-07
 -1.498067e-07
 -7.127416e-07
 -7.356185e-08
 1.206781e-08
 -1.733845e-05
 1.328245e-07
 0.000000e+00
 0.000000e+00
 2.484015e-07
 4.272477e-07
 2.803826e-07
 3.521018e-08
 1.053236e-09
 -1.745972e-08
 -1.047574e-07
 -1.935410e-07
 -2.534921e-07
 -3.092586e-07
 -3.045473e-07
 -2.528246e-07
 -1.812502e-07
 1.668639e-07
 6.372756e-07
 1.661414e-06
 1.779254e-07
 -9.345837e-07
 1.704800e-05
 -1.774572e-05
 4.167694e-08
 8.724058e-08
 -6.247043e-08
 1.658846e-08
 1.773519e-07
 3.726535e-07
 1.419691e-06
 5.555879e-09
 -9.300227e-07
 2.893226e-08
 5.960304e-07
 8.369092e-07
 1.188429e-06
 2.720978e-08
 -1.310807e-06
 -3.278400e-07
 -3.226030e-07
 -3.347514e-07
 -4.670102e-08
 2.622513e-07
 2.033904e-07
 -1.809289e-08
 -1.074480e-07
 -1.753271e-05
 -8.925597e-09
 -1.550418e-07
 -7.980386e-07
 8.083387e-08
 1.307013e-06
 0.000000e+00
 0.000000e+00
 1.781571e-07
 2.846732e-07
 2.701798e-07
 1.953955e-07
 1.374871e-07
 7.938941e-08
 -1.344593e-09
 -8.892439e-08
 -1.584631e-07
 -1.876808e-07
 -1.611497e-07
 -9.877998e-08
 -1.321082e-08
 1.162691e-07
 2.217004e-07
 2.884213e-07
 -1.713582e-05
 6.927657e-07
 -9.977577e-07
 -1.489252e-06
 7.997036e-07
 -1.203640e-07
 6.736923e-08
 3.249272e-07
 2.781230e-07
 1.531417e-07
 8.290598e-08
 -1.755625e-05
 -1.150091e-06
 2.145115e-07
 1.381827e-06
 1.965176e-06
 6.231935e-07
 -4.679436e-07
 -1.260345e-07
 -2.695871e-07
 -4.024156e-07
 -2.846193e-07
 -9.310516e-08
 2.571580e-08
 -1.966568e-08
 -2.555810e-07
 -9.530084e-07
 -4.263553e-08
 1.294318e-06
 1.788737e-07
 -5.453773e-08
 7.241035e-08
 2.212489e-07
 0.000000e+00
 0.000000e+00
 1.783993e-07
 2.899985e-07
 3.239486e-07
 3.135400e-07
 2.768571e-07
 2.076704e-07
 1.092227e-07
 -3.282466e-09
 -1.029363e-07
 -1.310456e-07
 -5.297189e-08
 4.605528e-08
 8.768926e-08
 7.997606e-08
 -3.965006e-08
 -6.501777e-07
 2.710847e-07
 1.486106e-06
 1.986475e-08
 -3.464897e-07
 -4.002178e-07
 -1.461668e-06
 4.315006e-08
 1.130919e-06
 3.685147e-07
 -5.344352e-08
 -7.903455e-07
 9.507755e-08
 1.375180e-06
 1.778829e-05
 2.198784e-07
 3.333556e-07
 -1.706862e-05
 4.649034e-07
 1.375040e-06
 8.227653e-09
 -9.077897e-07
 -2.555524e-07
 -7.199334e-08
 -2.365939e-08
 -7.366433e-08
 -2.132560e-07