<VTKFile type="UnstructuredGrid"  version="0.1"   >
<UnstructuredGrid>  
<Piece  NumberOfPoints="     2601"  NumberOfCells="     5000">  
<Points>  
<DataArray  type="Float64"  NumberOfComponents="3"  format="ascii">  
 0.000000 0.000000 0.000000 
 0.020000 0.000000 0.000000 
 0.040000 0.000000 0.000000 
 0.060000 0.000000 0.000000 
 0.080000 0.000000 0.000000 
 0.100000 0.000000 0.000000 
 0.120000 0.000000 0.000000 
 0.140000 0.000000 0.000000 
 0.160000 0.000000 0.000000 
 0.180000 0.000000 0.000000 
 0.200000 0.000000 0.000000 
 0.220000 0.000000 0.000000 
 0.240000 0.000000 0.000000 
 0.260000 0.000000 0.000000 
 0.280000 0.000000 0.000000 
 0.300000 0.000000 0.000000 
 0.320000 0.000000 0.000000 
 0.340000 0.000000 0.000000 
 0.360000 0.000000 0.000000 
 0.380000 0.000000 0.000000 
 0.400000 0.000000 0.000000 
 0.420000 0.000000 0.000000 
 0.440000 0.000000 0.000000 
 0.460000 0.000000 0.000000 
 0.480000 0.000000 0.000000 
 0.500000 0.000000 0.000000 
 0.520000 0.000000 0.000000 
 0.540000 0.000000 0.000000 
 0.560000 0.000000 0.000000 
 0.580000 0.000000 0.000000 
 0.600000 0.000000 0.000000 
 0.620000 0.000000 0.000000 
 0.640000 0.000000 0.000000 
 0.660000 0.000000 0.000000 
 0.680000 0.000000 0.000000 
 0.700000 0.000000 0.000000 
 0.720000 0.000000 0.000000 
 0.740000 0.000000 0.000000 
 0.760000 0.000000 0.000000 
 0.780000 0.000000 0.000000 
 0.800000 0.000000 0.000000 
 0.820000 0.000000 0.000000 
 0.840000 0.000000 0.000000 
 0.860000 0.000000 0.000000 
 0.880000 0.000000 0.000000 
 0.900000 0.000000 0.000000 
 0.920000 0.000000 0.000000 
 0.940000 0.000000 0.000000 
 0.960000 0.000000 0.000000 
 0.980000 0.000000 0.000000 
 1.000000 0.000000 0.000000 
 0.000000 0.020000 0.000000 
 0.020000 0.020000 0.000000 
 0.040000 0.020000 0.000000 
 0.060000 0.020000 0.000000 
 0.080000 0.020000 0.000000 
 0.100000 0.020000 0.000000 
 0.120000 0.020000 0.000000 
 0.140000 0.020000 0.000000 
 0.160000 0.020000 0.000000 
 0.180000 0.020000 0.000000 
 0.200000 0.020000 0.000000 
 0.220000 0.020000 0.000000 
 0.240000 0.020000 0.000000 
 0.260000 0.020000 0.000000 
 0.280000 0.020000 0.000000 
 0.300000 0.020000 0.000000 
 0.320000 0.020000 0.000000 
 0.340000 0.020000 0.000000 
 0.360000 0.020000 0.000000 
 0.380000 0.020000 0.000000 
 0.400000 0.020000 0.000000 
 0.420000 0.020000 0.000000 
 0.440000 0.020000 0.000000 
 0.460000 0.020000 0.000000 
 0.480000 0.020000 0.000000 
 0.500000 0.020000 0.000000 
 0.520000 0.020000 0.000000 
 0.540000 0.020000 0.000000 
 0.560000 0.020000 0.000000 
 0.580000 0.020000 0.000000 
 0.600000 0.020000 0.000000 
 0.620000 0.020000 0.000000 
 0.640000 0.020000 0.000000 
 0.660000 0.020000 0.000000 
 0.680000 0.020000 0.000000 
 0.700000 0.020000 0.000000 
 0.720000 0.020000 0.000000 
 0.740000 0.020000 0.000000 
 0.760000 0.020000 0.000000 
 0.780000 0.020000 0.000000 
 0.800000 0.020000 0.000000 
 0.820000 0.020000 0.000000 
 0.840000 0.020000 0.000000 
 0.860000 0.020000 0.000000 
 0.880000 0.020000 0.000000 
 0.900000 0.020000 0.000000 
 0.920000 0.020000 0.000000 
 0.940000 0.020000 0.000000 
 0.960000 0.020000 0.000000 
 0.980000 0.020000 0.000000 
 1.000000 0.020000 0.000000 
 0.000000 0.040000 0.000000 
 0.020000 0.040000 0.000000 
 0.040000 0.040000 0.000000 
 0.060000 0.040000 0.000000 
 0.080000 0.040000 0.000000 
 0.100000 0.040000 0.000000 
 0.120000 0.040000 0.000000 
 0.140000 0.040000 0.000000 
 0.160000 0.040000 0.000000 
 0.180000 0.040000 0.000000 
 0.200000 0.040000 0.000000 
 0.220000 0.040000 0.000000 
 0.240000 0.040000 0.000000 
 0.260000 0.040000 0.000000 
 0.280000 0.040000 0.000000 
 0.300000 0.040000 0.000000 
 0.320000 0.040000 0.000000 
 0.340000 0.040000 0.000000 
 0.360000 0.040000 0.000000 
 0.380000 0.040000 0.000000 
 0.400000 0.040000 0.000000 
 0.420000 0.040000 0.000000 
 0.440000 0.040000 0.000000 
 0.460000 0.040000 0.000000 
 0.480000 0.040000 0.000000 
 0.500000 0.040000 0.000000 
 0.520000 0.040000 0.000000 
 0.540000 0.040000 0.000000 
 0.560000 0.040000 0.000000 
 0.580000 0.040000 0.000000 
 0.600000 0.040000 0.000000 
 0.620000 0.040000 0.000000 
 0.640000 0.040000 0.000000 
 0.660000 0.040000 0.000000 
 0.680000 0.040000 0.000000 
 0.700000 0.040000 0.000000 
 0.720000 0.040000 0.000000 
 0.740000 0.040000 0.000000 
 0.760000 0.040000 0.000000 
 0.780000 0.040000 0.000000 
 0.800000 0.040000 0.000000 
 0.820000 0.040000 0.000000 
 0.840000 0.040000 0.000000 
 0.860000 0.040000 0.000000 
 0.880000 0.040000 0.000000 
 0.900000 0.040000 0.000000 
 0.920000 0.040000 0.000000 
 0.940000 0.040000 0.000000 
 0.960000 0.040000 0.000000 
 0.980000 0.040000 0.000000 
 1.000000 0.040000 0.000000 
 0.000000 0.060000 0.000000 
 0.020000 0.060000 0.000000 
 0.040000 0.060000 0.000000 
 0.060000 0.060000 0.000000 
 0.080000 0.060000 0.000000 
 0.100000 0.060000 0.000000 
 0.120000 0.060000 0.000000 
 0.140000 0.060000 0.000000 
 0.160000 0.060000 0.000000 
 0.180000 0.060000 0.000000 
 0.200000 0.060000 0.000000 
 0.220000 0.060000 0.000000 
 0.240000 0.060000 0.000000 
 0.260000 0.060000 0.000000 
 0.280000 0.060000 0.000000 
 0.300000 0.060000 0.000000 
 0.320000 0.060000 0.000000 
 0.340000 0.060000 0.000000 
 0.360000 0.060000 0.000000 
 0.380000 0.060000 0.000000 
 0.400000 0.060000 0.000000 
 0.420000 0.060000 0.000000 
 0.440000 0.060000 0.000000 
 0.460000 0.060000 0.000000 
 0.480000 0.060000 0.000000 
 0.500000 0.060000 0.000000 
 0.520000 0.060000 0.000000 
 0.540000 0.060000 0.000000 
 0.560000 0.060000 0.000000 
 0.580000 0.060000 0.000000 
 0.600000 0.060000 0.000000 
 0.620000 0.060000 0.000000 
 0.640000 0.060000 0.000000 
 0.660000 0.060000 0.000000 
 0.680000 0.060000 0.000000 
 0.700000 0.060000 0.000000 
 0.720000 0.060000 0.000000 
 0.740000 0.060000 0.000000 
 0.760000 0.060000 0.000000 
 0.780000 0.060000 0.000000 
 0.800000 0.060000 0.000000 
 0.820000 0.060000 0.000000 
 0.840000 0.060000 0.000000 
 0.860000 0.060000 0.000000 
 0.880000 0.060000 0.000000 
 0.900000 0.060000 0.000000 
 0.920000 0.060000 0.000000 
 0.940000 0.060000 0.000000 
 0.960000 0.060000 0.000000 
 0.980000 0.060000 0.000000 
 1.000000 0.060000 0.000000 
 0.000000 0.080000 0.000000 
 0.020000 0.080000 0.000000 
 0.040000 0.080000 0.000000 
 0.060000 0.080000 0.000000 
 0.080000 0.080000 0.000000 
 0.100000 0.080000 0.000000 
 0.120000 0.080000 0.000000 
 0.140000 0.080000 0.000000 
 0.160000 0.080000 0.000000 
 0.180000 0.080000 0.000000 
 0.200000 0.080000 0.000000 
 0.220000 0.080000 0.000000 
 0.240000 0.080000 0.000000 
 0.260000 0.080000 0.000000 
 0.280000 0.080000 0.000000 
 0.300000 0.080000 0.000000 
 0.320000 0.080000 0.000000 
 0.340000 0.080000 0.000000 
 0.360000 0.080000 0.000000 
 0.380000 0.080000 0.000000 
 0.400000 0.080000 0.000000 
 0.420000 0.080000 0.000000 
 0.440000 0.080000 0.000000 
 0.460000 0.080000 0.000000 
 0.480000 0.080000 0.000000 
 0.500000 0.080000 0.000000 
 0.520000 0.080000 0.000000 
 0.540000 0.080000 0.000000 
 0.560000 0.080000 0.000000 
 0.580000 0.080000 0.000000 
 0.600000 0.080000 0.000000 
 0.620000 0.080000 0.000000 
 0.640000 0.080000 0.000000 
 0.660000 0.080000 0.000000 
 0.680000 0.080000 0.000000 
 0.700000 0.080000 0.000000 
 0.720000 0.080000 0.000000 
 0.740000 0.080000 0.000000 
 0.760000 0.080000 0.000000 
 0.780000 0.080000 0.000000 
 0.800000 0.080000 0.000000 
 0.820000 0.080000 0.000000 
 0.840000 0.080000 0.000000 
 0.860000 0.080000 0.000000 
 0.880000 0.080000 0.000000 
 0.900000 0.080000 0.000000 
 0.920000 0.080000 0.000000 
 0.940000 0.080000 0.000000 
 0.960000 0.080000 0.000000 
 0.980000 0.080000 0.000000 
 1.000000 0.080000 0.000000 
 0.000000 0.100000 0.000000 
 0.020000 0.100000 0.000000 
 0.040000 0.100000 0.000000 
 0.060000 0.100000 0.000000 
 0.080000 0.100000 0.000000 
 0.100000 0.100000 0.000000 
 0.120000 0.100000 0.000000 
 0.140000 0.100000 0.000000 
 0.160000 0.100000 0.000000 
 0.180000 0.100000 0.000000 
 0.200000 0.100000 0.000000 
 0.220000 0.100000 0.000000 
 0.240000 0.100000 0.000000 
 0.260000 0.100000 0.000000 
 0.280000 0.100000 0.000000 
 0.300000 0.100000 0.000000 
 0.320000 0.100000 0.000000 
 0.340000 0.100000 0.000000 
 0.360000 0.100000 0.000000 
 0.380000 0.100000 0.000000 
 0.400000 0.100000 0.000000 
 0.420000 0.100000 0.000000 
 0.440000 0.100000 0.000000 
 0.460000 0.100000 0.000000 
 0.480000 0.100000 0.000000 
 0.500000 0.100000 0.000000 
 0.520000 0.100000 0.000000 
 0.540000 0.100000 0.000000 
 0.560000 0.100000 0.000000 
 0.580000 0.100000 0.000000 
 0.600000 0.100000 0.000000 
 0.620000 0.100000 0.000000 
 0.640000 0.100000 0.000000 
 0.660000 0.100000 0.000000 
 0.680000 0.100000 0.000000 
 0.700000 0.100000 0.000000 
 0.720000 0.100000 0.000000 
 0.740000 0.100000 0.000000 
 0.760000 0.100000 0.000000 
 0.780000 0.100000 0.000000 
 0.800000 0.100000 0.000000 
 0.820000 0.100000 0.000000 
 0.840000 0.100000 0.000000 
 0.860000 0.100000 0.000000 
 0.880000 0.100000 0.000000 
 0.900000 0.100000 0.000000 
 0.920000 0.100000 0.000000 
 0.940000 0.100000 0.000000 
 0.960000 0.100000 0.000000 
 0.980000 0.100000 0.000000 
 1.000000 0.100000 0.000000 
 0.000000 0.120000 0.000000 
 0.020000 0.120000 0.000000 
 0.040000 0.120000 0.000000 
 0.060000 0.120000 0.000000 
 0.080000 0.120000 0.000000 
 0.100000 0.120000 0.000000 
 0.120000 0.120000 0.000000 
 0.140000 0.120000 0.000000 
 0.160000 0.120000 0.000000 
 0.180000 0.120000 0.000000 
 0.200000 0.120000 0.000000 
 0.220000 0.120000 0.000000 
 0.240000 0.120000 0.000000 
 0.260000 0.120000 0.000000 
 0.280000 0.120000 0.000000 
 0.300000 0.120000 0.000000 
 0.320000 0.120000 0.000000 
 0.340000 0.120000 0.000000 
 0.360000 0.120000 0.000000 
 0.380000 0.120000 0.000000 
 0.400000 0.120000 0.000000 
 0.420000 0.120000 0.000000 
 0.440000 0.120000 0.000000 
 0.460000 0.120000 0.000000 
 0.480000 0.120000 0.000000 
 0.500000 0.120000 0.000000 
 0.520000 0.120000 0.000000 
 0.540000 0.120000 0.000000 
 0.560000 0.120000 0.000000 
 0.580000 0.120000 0.000000 
 0.600000 0.120000 0.000000 
[...]
<PointData  Scalars="U"> 
<DataArray  type="Float64"  Name="U"  format="ascii"> 
 0.000000e+00
 0.000000e+00
 0.000000e+00
 0.000000e+00
 0.000000e+00
 0.000000e+00
 0.000000e+00
 0.000000e+00
 0.000000e+00
 0.000000e+00
 0.000000e+00
 0.000000e+00
 0.000000e+00
 0.000000e+00
 0.000000e+00
 0.000000e+00
 0.000000e+00
 0.000000e+00
 0.000000e+00
 0.000000e+00
 0.000000e+00
 0.000000e+00
 0.000000e+00
 0.000000e+00
 0.000000e+00
 0.000000e+00
 0.000000e+00
 0.000000e+00
 0.000000e+00
 0.000000e+00
 0.000000e+00
 0.000000e+00
 0.000000e+00
 0.000000e+00
 0.000000e+00
 0.000000e+00
 0.000000e+00
 0.000000e+00
 0.000000e+00
 0.000000e+00
 0.000000e+00
 0.000000e+00
 0.000000e+00
 0.000000e+00
 0.000000e+00
 0.000000e+00
 0.000000e+00
 0.000000e+00
 0.000000e+00
 0.000000e+00
 0.000000e+00
 0.000000e+00
 -3.370406e-08
 9.749291e-09
 8.801761e-08
 -9.389992e-07
 1.761741e-05
 1.875270e-06
 -1.111483e-06
 -1.062961e-06
 4.077809e-07
 1.118429e-06
 -1.724691e-05
 1.594067e-05
 -5.226216e-08
 1.555297e-06
 -2.013059e-07
 3.299461e-08
 -1.513865e-06
 -1.910022e-05
 1.937397e-06
 8.010432e-07
 -6.746668e-07
 -1.200946e-06
 5.507224e-08
 6.671906e-07
 2.480609e-07
 2.309905e-06
 -1.008482e-06
 -1.459758e-06
 3.578301e-07
 -1.721111e-05
 1.506839e-06
 4.238897e-07
 1.712722e-05
 5.852388e-08
 -1.850549e-07
 -6.159868e-07
 -4.560722e-07
 -1.658054e-07
 -1.335279e-06
 -1.447278e-06
 -7.600271e-07
 3.369585e-07
 -1.667756e-05
 -1.684958e-05
 4.329268e-07
 3.604635e-08
 -6.609517e-09
 1.714257e-07
 1.077400e-07
 0.000000e+00
 0.000000e+00
 -1.583021e-07
 -7.986990e-08
 4.555133e-07
 1.235168e-06
 1.666879e-05
 -1.405421e-07
 -1.712492e-05
 1.649466e-05
 -6.314745e-07
 -1.868354e-06
 -1.633670e-05
 2.373951e-06
 1.735100e-05
 -1.973746e-06
 -1.900247e-05
 1.043399e-07
 -1.806098e-05
 1.979785e-05
 1.767100e-05
 -1.853720e-05
 7.810635e-07
 1.858865e-07
 1.860151e-05
 -1.355477e-06
 -2.149963e-07
 -5.650339e-07
 -3.411842e-05
 1.930185e-05
 -1.348174e-06
 4.309217e-07
 4.436251e-07
 -1.658644e-05
 1.510351e-06
 3.264621e-07
 5.856140e-07
 -2.473497e-06
 -1.280190e-06
 7.666471e-07
 3.962301e-07
 1.739519e-05
 1.779200e-05
 1.484420e-05
 -6.792846e-07
 2.038905e-06
 2.177178e-06
 -6.682623e-07
 -4.884707e-07
 8.267331e-07
 2.055310e-07
 0.000000e+00
 0.000000e+00
 -3.831089e-07
 -1.189060e-06
 5.931305e-07
 2.216124e-06
 1.132439e-06
 1.501212e-05
 -1.784090e-05
 1.236901e-06
 -1.232321e-06
 -7.956039e-07
 1.811910e-05
 2.324698e-06
 -4.595955e-07
 -2.068734e-05
 1.603895e-05
 -1.566451e-07
 6.780775e-07
 1.738698e-06
 -3.663866e-05
 1.790969e-05
 1.814127e-06
 -5.411095e-07
 1.127774e-06
 -1.944788e-05
 1.553623e-05
 -1.995094e-05
 1.932135e-05
 -1.563307e-05
 -1.822940e-05
 7.289710e-07
 -1.797009e-05
 1.873915e-05
 3.139190e-06
 -4.027322e-08
 -1.867564e-05
 -1.699238e-05
 1.639196e-05
 1.087561e-06
 2.247814e-06
 4.859569e-07
 -1.989632e-06
 -1.982787e-05
 1.582400e-05
 -1.886339e-05
 5.590426e-07
 -1.606330e-05
 1.800359e-05
 1.312914e-07
 1.750269e-08
 0.000000e+00
 0.000000e+00
 -1.338928e-06
 -1.704808e-07
 1.825516e-05
 2.601922e-07
 2.259732e-07
 -2.019805e-05
 -1.339259e-06
 3.386546e-06
 -2.316069e-07
 1.527863e-06
 9.358796e-07
 -8.312177e-07
 -5.985196e-07
 -1.486917e-06
 -8.049743e-07
 -1.592193e-06
 -3.478610e-07
 -1.607964e-06
 -1.738721e-06
 3.584702e-06
 -1.607817e-05
 2.632660e-07
 1.730918e-05
 -1.605836e-05
 1.584611e-05
 -1.225642e-06
 1.803419e-05
 -2.024461e-05
 1.667428e-05
 -1.576411e-05
 1.607028e-06
 3.109428e-06
 2.869798e-07
 -1.938382e-05
 -1.479810e-06
 5.587228e-07
 -1.587946e-05
 1.791190e-05
 -1.659197e-05
 1.538097e-06
 5.236599e-07
 1.720153e-05
 -1.047465e-06
 -1.765913e-06
 1.815770e-05
 1.610043e-06
 1.703269e-06
 -1.161279e-06
 -3.740059e-07
 0.000000e+00
 0.000000e+00
 -5.624768e-08
 1.768319e-05
 -5.381671e-07
 -2.519161e-06
 -1.195931e-06
 -1.017552e-06
 1.741827e-05
 2.532415e-07
 -1.612456e-05
 1.860989e-05
 -1.761253e-05
 -2.067605e-06
 -1.904914e-05
 -1.923265e-05
 -9.746086e-07
 1.036211e-06
 1.734628e-07
 -1.810167e-07
 -8.988832e-08
 3.309881e-05
 -1.699131e-05
 3.286115e-06
 9.106433e-07
 4.132505e-07
 -1.772460e-05
 1.463054e-05
 -1.755205e-05
 -3.922843e-07
 -2.331148e-06
 1.589230e-05
 -1.469511e-05
 2.055965e-05
 -1.722335e-05
 -1.251376e-06
 2.123642e-08
 -5.607961e-07
 1.808672e-05
 1.245778e-06
 -4.360854e-07
 -5.389557e-07
 -1.707492e-05
 -1.417954e-05
 -4.374010e-07
 -5.340239e-07
 3.848067e-07
 4.627232e-07
 1.211873e-06
 -7.888929e-07
 -9.785196e-07
 0.000000e+00
 0.000000e+00
 1.522928e-06
 -2.423245e-06
 -2.856075e-06
 9.844054e-07
 1.761640e-05
 3.122082e-07
 1.863320e-05
 1.707945e-05
 1.763038e-05
 -3.660640e-07
 -8.356841e-07
 1.565038e-08
 1.488849e-05
 -6.391982e-07
 1.629476e-05
 -3.280555e-06
 -1.672213e-05
 4.809161e-06
 2.049292e-06
 -2.330462e-06
 1.521831e-05
 1.556079e-06
 -3.484193e-07
 -2.018863e-05
 -1.729807e-05
 1.113388e-06
 1.675077e-05
 -1.511033e-05
 -8.524029e-07
 1.420851e-05
 -1.922138e-06
 4.163164e-06
 -1.519530e-05
 8.777644e-07
 -2.473366e-06
 -2.332066e-07
 3.216157e-06
 1.891031e-05
 -1.220551e-06
 -2.825879e-06
 1.253825e-05
 8.807870e-07
 -3.121849e-05
 1.186970e-06
 2.620595e-06
 -1.162928e-06
 -1.890228e-05
 -1.661434e-05
 2.975380e-07
 0.000000e+00
 0.000000e+00
 -9.969500e-07
 -1.748553e-05
 3.850174e-05
 1.910105e-05
 -2.448402e-06
 -2.178835e-06
 2.573935e-07
 -1.799549e-05
 -1.738077e-05
 -2.589660e-07
 -1.785888e-06
 -1.983502e-05
 -1.817347e-05
 2.896999e-07
 -2.145782e-07
 1.257095e-05
 3.268550e-05
 2.080948e-06
 -3.466088e-05
 7.537267e-08
 8.657103e-07
 5.057657e-07
 -8.105381e-07
 -3.710405e-06
 1.762650e-05
 1.898542e-06
 9.907848e-07
 2.781855e-07
 -1.561789e-05
 1.757714e-05
 1.570148e-05
 3.251599e-05
 -3.518588e-05
 -1.542380e-05
 -1.851466e-05
 1.333078e-05
 3.358142e-06
 -1.268047e-05
 -2.004627e-05
 -6.790232e-07
 6.408183e-07
 4.801262e-05
 -1.124106e-06
 1.972852e-06
 2.190238e-07
 -3.616781e-05
 1.703947e-05
 2.385474e-06
 1.806401e-06
 0.000000e+00
 0.000000e+00
 -1.846700e-05
 2.020264e-05
 3.119425e-06
 -3.791110e-05
 -2.153193e-05
 -2.713654e-06
 -7.578750e-07
 -1.167451e-06
 1.096646e-06
 -1.505162e-05
 -1.889995e-05
 -9.972249e-07
 1.857706e-05
 2.470463e-06
 3.094162e-06
 3.159474e-06
 3.185275e-05
 9.891920e-06
 -6.304295e-07
 2.094437e-05
 1.892864e-05
 -9.348119e-07
 -2.055564e-05
 -1.770859e-05
 1.748572e-05
 -2.261265e-08
 1.720015e-05
 -1.817536e-05
 2.449701e-06
 3.075568e-06
 -1.029875e-07
 -3.023108e-06
 1.341766e-05
 1.339723e-06
 4.207206e-06
 1.915924e-05
 6.742086e-05
 -1.832279e-05
 -1.612348e-05
 1.912716e-05
 1.975297e-06
 -1.842092e-05
 1.321761e-05
 -7.339913e-07
 1.581240e-05
 6.382495e-07
 2.017787e-05
 -3.779631e-07
 3.887357e-07
 0.000000e+00
 0.000000e+00
 1.697076e-06
 2.203456e-05
 -1.954892e-06
 -3.281808e-06
 5.525746e-07
 1.663672e-05
 1.702633e-05
 6.029482e-07
 1.662979e-05
 -2.535341e-06
 -1.777176e-05
 3.896106e-07
 -1.730683e-05
 -7.748506e-07
 -1.630681e-05
 -1.413675e-05
 -3.399904e-05
 -2.911623e-06
 1.641292e-05
 2.933685e-07
 -8.980772e-07
 -2.054374e-05
 -2.026787e-06
 1.855844e-05
 1.426467e-06
 2.101419e-05
 -5.708236e-08
 1.320255e-05
 1.154543e-06
 2.855387e-06
 -8.437416e-07
 -1.315712e-06
 -1.902714e-05
 3.289253e-07
 2.735521e-06
 -1.463772e-05
 -1.512072e-06
 -5.825421e-06
 2.245050e-06
 1.369378e-06
 -2.298340e-06
 4.414272e-07
 6.086620e-07
 1.068198e-07
 -1.322163e-06
 -7.015974e-07
 1.178519e-06
 -8.717798e-07
 -7.151664e-08
 0.000000e+00
 0.000000e+00
 9.713552e-07
 5.831980e-07
 -3.287801e-05
 -1.282576e-06
 -2.950055e-07
 1.802228e-07
 1.597069e-05
 1.084278e-06
 1.457714e-06
 -1.424012e-06
 1.444253e-05
 -3.216362e-06
 1.834126e-05
 1.140906e-06
 1.616624e-05
 5.311342e-07
 1.779439e-06
 5.101421e-06
 8.035702e-07
 -3.732181e-06
 -3.309233e-06
 -1.904843e-05
 2.360577e-06
 2.044205e-06
 1.860372e-05
 1.906806e-05
 -3.466521e-05
 -1.518433e-06
 1.511835e-05
 1.038494e-06
 -1.639011e-05
 1.601456e-05
 1.122361e-07
 1.828697e-05
 -1.866558e-05
 -6.735026e-07
 -3.870561e-07
 -1.752035e-05
 2.188565e-06
 -1.898586e-05
 -1.838206e-06
 1.187906e-06
 -5.020400e-07
 -1.248366e-06
 -1.644148e-05
 1.896293e-05
 2.557945e-07
 -2.606499e-07
 -1.315526e-07
 0.000000e+00
 0.000000e+00
 -1.720266e-06
 -2.347490e-06
 -8.129532e-07
 -4.842991e-05
 1.860267e-05
 -1.720335e-05
 1.948664e-05
 -2.565736e-06
 -2.081967e-05
 -3.406246e-05
 -3.539502e-05
 -2.879273e-06
 1.830320e-05
 -1.726057e-05
 -1.926407e-06
 -7.583675e-07
 3.152711e-06
 2.008395e-05
 -1.755949e-05
 2.150429e-07
 1.705671e-05
 1.700525e-05
 1.701481e-05
 1.089747e-06
 3.686341e-06
 -4.321622e-06
 -1.955221e-05
 -1.496062e-05
 -8.608375e-07
 -2.985445e-06
 -1.723948e-05
 -1.556907e-05
 8.855659e-07
 -1.833928e-05
 -2.599724e-06
 1.672832e-06
 1.764298e-05
 1.513427e-05
 1.775674e-06
 -1.446499e-05
 3.704138e-05
 1.727638e-05
 -6.038533e-07
 1.569051e-05
 1.843482e-05
 3.432434e-06
 -1.879879e-06
 -1.246841e-06
 2.040588e-07
 0.000000e+00
 0.000000e+00
 -8.715775e-07
 1.566901e-05
 -4.047501e-06
 1.874961e-05
 -1.240466e-05
 2.023784e-05
 2.029920e-05
 -2.110612e-05
 1.304384e-05
 1.522571e-05
 -1.720805e-05
 2.843265e-06
 1.669849e-05
 -1.847019e-05
 1.559218e-06
 1.777727e-05
 1.355595e-06
 -1.769806e-05
 -1.924600e-05
 4.379384e-06
 -1.702515e-05
 -1.967484e-05
 -1.831428e-05
 1.757667e-05
 -4.765178e-07
 -3.871008e-05
 1.547045e-05
 -1.347570e-05
 1.982606e-05
 -2.087793e-06
 1.500195e-05
 1.581623e-08
 1.188691e-06
 -1.867636e-05
 3.159941e-06
 2.192339e-05
 8.434002e-07
 -7.570000e-07
 3.297528e-05
 -1.888917e-05
 -1.639356e-05
 -1.747038e-05
 1.141259e-06
 1.862666e-06
 1.499801e-05
 -7.653994e-07
 -1.584019e-05
 1.639409e-05
 -1.218006e-06
 0.000000e+00
 0.000000e+00
 1.083400e-08
 -1.755691e-06
 -5.084566e-07
 1.669423e-05
 -3.709552e-07
 2.802494e-06
 -1.693638e-05
 -1.794395e-05
 6.468842e-07
 -3.671563e-06
 -3.991786e-06
 1.922370e-05
 4.427567e-07
 1.740979e-05
 -6.843654e-07
 -8.250448e-07
 -3.221592e-07
 -5.276758e-07
 -6.235026e-08
 1.823734e-05
 -3.473876e-05
 1.761595e-05
 4.344862e-08
 6.631549e-07
 -1.939292e-05
 -4.350569e-07
 2.094162e-05
 1.897838e-05
 -1.646637e-05
 -4.483548e-07
 -2.659966e-07
 1.735165e-05
 1.671002e-05
 -4.096339e-07
 3.741140e-05
 -1.779326e-05
 -1.801843e-05
 2.190371e-06
 -1.694687e-05
 -1.584483e-06
 3.405077e-05
 1.947145e-05
 2.455282e-06
 1.245309e-06
 -1.949993e-05
 1.529669e-05
 -1.641077e-05
 -1.697156e-05
 -1.258577e-06
 0.000000e+00
 0.000000e+00
 -1.786819e-05
 -1.803813e-06
 3.649564e-08
 -1.732738e-05
 -2.704425e-06
 -1.629701e-06
 2.323219e-06
 -1.448674e-05
 4.841125e-07
 -1.767825e-05
 -1.561389e-06
 1.680942e-05
 4.637126e-07
 -1.013553e-08
 -1.897121e-05
 3.365806e-05
 3.402782e-07
 9.469327e-07
 5.391596e-07
 1.594677e-05
 -7.879498e-07
 1.579332e-06
 -3.723612e-06
 1.642293e-05
 1.343646e-06
 1.637912e-06
 2.122180e-05
 -1.822872e-05
 -2.200766e-06
 2.343628e-06
 9.784424e-07
 1.207004e-06
 -1.830344e-05
 -1.551903e-07
 4.359944e-07
 -3.102671e-06
 1.767394e-05
 -9.008353e-08
 5.643356e-07
 -1.411660e-05
 -1.522824e-05
 1.559760e-05
 -1.862346e-05
 -1.322515e-06
 -1.825830e-05
 1.709974e-05
 -1.916026e-05
 1.590705e-06
 1.358817e-06
 0.000000e+00
 0.000000e+00
 -1.191823e-08
 -5.523587e-08
 1.633711e-05
 -1.098585e-07
 -1.711288e-07
 1.535464e-05
 2.044738e-05
 -1.416041e-05
 -3.782031e-08
 -1.651457e-06
 -1.791447e-05
 1.847188e-05
 -4.064090e-07
 9.930138e-07
 -8.025916e-07
 1.020858e-06
 1.954413e-05
 1.628896e-07
 -6.129105e-07
 5.368544e-07
 -1.418824e-06
 -9.565556e-07
 -5.723167e-08
 3.541798e-05
 -1.106092e-06
 9.795296e-07
 1.654263e-05
 -3.699394e-05
 1.219224e-06
 6.441939e-07
 -1.934169e-05
 -4.170813e-07
 -1.640053e-05
 1.961055e-06
 -5.605952e-07
 -1.774337e-05
 4.876647e-07
 1.385822e-06
 1.791809e-05
 -2.763133e-06
 1.192170e-06
 -1.575117e-05
 -1.887265e-06
 -1.930710e-05
 5.891388e-07
 1.334697e-07
 2.698979e-07
 2.304632e-06
 -7.964588e-08
 0.000000e+00
 0.000000e+00
 -1.597754e-05
 5.026597e-07
 -1.558282e-06
 4.515121e-07
 2.368622e-06
 1.794708e-05
 3.456422e-05
 -3.604297e-05
 -1.843256e-05
 -2.000717e-05
 6.982038e-07
 1.792436e-05
 -1.998117e-05
 6.917569e-07
 -3.370821e-05
 3.310399e-05
 -1.592475e-05
 -3.339010e-05
 -1.491132e-07
 -9.543080e-07
 -1.654126e-05
 2.140300e-07
 -1.014179e-06
 -1.588771e-06
 -1.876301e-05
 -2.006480e-06
 -2.031705e-05
 -9.448422e-07
 2.897422e-06
 2.160103e-06
 6.837266e-07
 3.489828e-05
 2.680708e-06
 2.068770e-05
 -7.110428e-07
 1.392105e-05
 -2.481126e-07
 -2.481197e-07
 -3.504391e-05
 -1.792255e-05
 1.699407e-05
 -1.887779e-06
 -1.772474e-05
 1.326644e-06
 1.947374e-05
 6.783416e-07
 1.773241e-05
 -1.717852e-05
 2.519427e-07
 0.000000e+00
 0.000000e+00
 -1.781145e-05
 -1.437943e-05
 1.921411e-06
 1.736145e-05
 -1.463823e-05
 2.909269e-06
 -4.983476e-06
 -4.229114e-05
 -1.583930e-05
 3.827513e-06
 1.921473e-05
 -1.887032e-06
 1.588589e-05
 1.724965e-05
 1.778460e-06
 3.319216e-06
 4.939803e-05
 -1.678876e-05
 3.000954e-06
 9.322202e-07
 1.832982e-05
 -1.852061e-05
 -1.942726e-06
 1.810773e-05
 1.633656e-05
 -1.963961e-05
 3.489120e-05
 2.882976e-06
 1.707247e-05
 5.404160e-08
 -1.369882e-05
 -1.011474e-06
 -3.670125e-06
 -3.397965e-05
 -1.541903e-05
 -1.730872e-05
 3.295794e-05
 -6.034611e-07
 3.504590e-05
 2.625858e-07
 -2.072320e-06
 -2.160498e-05
 1.985915e-05
 3.358700e-06
 6.028244e-07
 8.352462e-07
 -5.945034e-07
 -1.325925e-06
 9.815387e-07
 0.000000e+00
 0.000000e+00
 1.725611e-05
 1.983853e-05
 4.053155e-06
 -1.053996e-07
 1.684842e-05
 -1.900877e-05
 -2.036230e-05
 6.549234e-07
 3.908453e-05
 4.022422e-06
 2.304027e-06
 1.675085e-05
 1.596829e-05
 -3.881516e-06
 -3.517673e-06
 3.116370e-06
 -1.671912e-05
 -2.916073e-06
 2.646564e-06
 7.159111e-07
 -1.918129e-05
 -1.846877e-05
 1.962839e-05
 1.818367e-05
 -1.831815e-05
 1.826158e-05
 1.634127e-05
 -1.223360e-06
 -1.711066e-05
 1.489577e-05
 1.225554e-06
 -1.640452e-05
 1.484789e-05
 1.643282e-05
 2.297241e-06
 -1.394682e-05
 1.601680e-06
 -1.662078e-07
 -1.790360e-05
 -1.925823e-05
 1.553398e-05
 1.621288e-05
 3.798270e-05
 -1.734870e-05
 1.718262e-05
 1.499004e-06
 2.401553e-07
 -9.831198e-07
 -3.112469e-07
 0.000000e+00
 0.000000e+00
 5.485848e-07
 -8.011235e-07
 -7.360751e-07
 -1.812501e-05
 -8.738221e-07
 -1.833920e-05
 3.692872e-05
 5.276191e-06
 4.330045e-06
 -2.942801e-07
 -2.775418e-07
 -1.774085e-05
 -1.883712e-06
 -3.242043e-06
 1.658951e-05
 3.440844e-05
 -4.020487e-07
 2.060286e-06
 -1.142783e-07
 -1.851852e-05
 -1.247478e-06
 2.663134e-06
 2.959756e-06
 -1.776744e-06
 -9.117975e-07
 -1.636780e-05
 -1.898052e-05
 1.565429e-05
 -1.685519e-05
 -5.298303e-07
 -2.326212e-06
 -1.636654e-05
 1.823042e-06
 -1.076078e-06
 -1.601755e-06
 6.150683e-07
 1.305438e-06
 -2.104048e-06
 -1.826240e-05
 3.270105e-06
 -1.286152e-05
 1.900207e-05
 1.484377e-05
 -2.120343e-05
 -7.288576e-07
 -4.352693e-07
 -1.559037e-05
 7.169250e-08
 -8.244286e-07
 0.000000e+00
 0.000000e+00
 -1.269626e-06
 -4.415962e-07
 -3.998867e-07
 -1.254902e-06
 1.887887e-05
 2.506988e-06
 2.971896e-06
 -4.317706e-07
 -1.709798e-05
 -3.468520e-05
 -1.790177e-05
 3.925817e-07
 1.550321e-06
 1.254329e-06
 1.951044e-05
 -4.002408e-06
 -4.810493e-06
 1.838006e-06
 -1.853366e-05
 -2.542083e-06
 -1.755036e-05
 -1.397766e-07
 -1.538229e-05
 1.590034e-06
 -4.161402e-07
 -3.755864e-06
 7.500187e-07
 2.429427e-06
 7.903998e-07
 1.577463e-06
 1.616413e-05
 -2.732887e-06
 1.493987e-06
 1.901715e-06
 -2.172937e-07
 -3.985781e-07
 -3.134160e-07
 -1.076782e-06
 1.733418e-05
 3.666667e-07
 2.999500e-06
 -1.194105e-05
 -1.491079e-06
 -3.042166e-06
 1.819439e-05
 1.602814e-05
 -8.208497e-07
 -1.624108e-05
 2.151275e-07
 0.000000e+00
 0.000000e+00
 -2.814889e-07
 1.693994e-05
 -4.068228e-07
 1.179378e-06
 1.578528e-05
 -2.012523e-05
 1.420899e-06
 -1.573985e-05
 3.772307e-07
 4.371542e-07
 2.127176e-06
 1.834535e-06
 1.083442e-06
 2.601550e-06
 9.496058e-07
 -2.188993e-05
 1.310762e-05
 -2.953328e-06
 -3.304906e-05
 -7.919321e-07
 -3.186275e-06
 7.692119e-07
 2.334636e-05
 3.839716e-06
 -1.985134e-06
 -1.960026e-05
 3.346357e-05
 2.687717e-06
 1.431005e-06
 -2.050165e-05
 -2.022589e-05
 -1.615593e-05
 3.802868e-05
 7.294031e-07
 -1.435754e-06
 -1.810111e-06
 -1.003145e-06
 5.637639e-08
 6.987533e-07
 -1.443771e-06
 1.745177e-05
 2.931469e-06
 -1.452289e-05
 -2.356803e-07
 -3.158831e-06
 -1.979759e-05
 -1.021958e-06
 2.119352e-07
 1.403571e-06
 0.000000e+00
 0.000000e+00
 5.753432e-07
 -1.004139e-06
 -1.570863e-06
 -8.634227e-07
 -2.052776e-05
 1.686260e-05
 1.820257e-05
 -9.240494e-07
 -1.564279e-05
 -1.507384e-05
 9.041480e-07
 -1.963335e-08
 3.037274e-07
 -1.189688e-07
 -1.950713e-05
 -1.600056e-05
 1.829148e-05
 1.159979e-05
 1.616737e-05
 -3.243076e-05
 1.474409e-05
 1.853644e-05
 1.851248e-05
 -5.568260e-05
 -1.666106e-05
 3.663372e-06
 2.127829e-05
 3.480465e-05
 -1.924566e-05
 -2.614681e-06
 3.408658e-05
 4.071313e-05
 3.671307e-06
 -1.596681e-06
 -4.517994e-07
 1.754435e-05
 1.595281e-05
 1.749215e-05
 1.787671e-05
 -6.009675e-07
 1.624929e-05
 -3.401800e-06
 -1.697247e-05
 -1.483498e-05
 -5.423191e-07
 3.403051e-05
 3.722777e-07
 4.683141e-08
 2.226865e-07
 0.000000e+00
 0.000000e+00
 -1.719543e-05
 1.578378e-07
 5.859601e-08
 2.083002e-09
 2.012982e-05
 3.739802e-05
 -7.076154e-07
 1.591120e-05
 1.533731e-05
 1.691494e-07
 -1.612256e-05
 3.309102e-07
 -1.406694e-07
 -1.075795e-06
 -2.727840e-06
 2.014600e-05
 -1.366881e-05
 -1.292071e-06
 1.391900e-05
 -9.378500e-07
 5.307711e-06
 5.293384e-05
 -4.244197e-06
 1.238284e-05
 3.860177e-05
 6.766890e-06
 2.021844e-05
 -2.038861e-05
 -1.968020e-05
 5.026217e-06
 2.205284e-05
 3.449465e-05
 -2.081284e-05
 -1.804500e-06
 -1.712468e-05
 1.800308e-06
 -1.734767e-05
 1.560016e-05
 -1.878246e-05
 -1.075070e-06
 -2.816058e-06
 -2.958638e-06
 1.735258e-05
 3.275112e-06
 3.197588e-06
 -1.858688e-06
 -2.768046e-06
 2.405559e-07
 -3.342590e-08
 0.000000e+00
 0.000000e+00
 3.312094e-07
 1.171244e-06
 8.666638e-07
 1.545350e-06
 2.792241e-06
 -1.693973e-05
 -1.553699e-06
 -1.798350e-05
 -1.983734e-05
 -2.506727e-06
 -1.077719e-06
 1.342990e-06
 -1.252450e-06
 2.566531e-07
 2.363253e-06
 3.610077e-05
 -5.419222e-07
 1.009845e-06
 -3.642898e-07
 -2.582482e-07
 2.204506e-05
 -1.733375e-05
 -5.689578e-06
 -1.712907e-05
 3.531143e-05
 -8.501475e-07
 -1.862458e-05
 -3.543798e-06
 1.623311e-06
 3.855543e-06
 -1.372723e-05
 -1.708476e-05
 -2.111105e-05
 -1.790101e-06
 4.320889e-07
 1.110511e-07
 -1.932579e-05
 -1.821078e-05
 -9.388223e-07
 -1.601494e-05
 6.691633e-07
 1.799091e-05
 -6.212391e-07
 -1.093637e-06
 -1.651457e-05
 9.117396e-07
 1.719037e-05
 -7.947307e-07
 -4.433971e-07
 0.000000e+00
 0.000000e+00
 1.756584e-05
 2.997554e-07
 1.804068e-05
 1.943468e-06
 1.776008e-05
 -1.475257e-07
 1.733650e-06
 -1.980234e-06
 4.736398e-07
 1.203593e-06
 8.463258e-07
 1.833520e-05
 1.099622e-06
 3.545964e-05
 7.567074e-07
 -6.432707e-07
 -2.014090e-05
 2.472838e-07
 3.916069e-07
 1.114711e-06
 2.862041e-07
 -1.838389e-05
 2.028802e-08
 1.902256e-05
 2.264981e-06
 -3.493721e-06
 -2.928229e-06
 5.388348e-07
 1.975154e-05
 1.590773e-06
 1.860107e-05
 1.311640e-06
 -1.790833e-05
 -8.386705e-07
 -8.343128e-07
 -1.862984e-05
 -1.246040e-06
 1.565396e-05
 -7.975313e-07
 1.267399e-06
 4.906493e-06
 1.550658e-06
 -2.518020e-06
 -2.885880e-06
 4.147628e-07
 5.789533e-06
 6.305826e-07
 -3.115521e-06
 -8.784209e-07
 0.000000e+00
 0.000000e+00
 -2.280833e-07
 -6.326742e-07
 -1.221686e-06
 -4.898560e-07
 -1.682622e-05
 -1.628606e-06
 3.935569e-06
 -1.645827e-05
 1.512204e-05
 -1.911097e-05
 1.889128e-06
 -1.586625e-05
 1.620892e-06
 -1.706073e-05
 -2.081331e-06
 -3.722360e-06
 -1.248954e-06
 3.374573e-06
 2.270039e-07
 -3.595353e-07
 9.796738e-07
 6.534010e-07
 1.315785e-06
 -8.443231e-07
 -1.067294e-06
 -1.746874e-05
 -3.987627e-07
 1.787768e-05
 -6.187226e-07
 -2.069545e-05
 -1.651270e-05
 -1.553724e-05
 -1.719916e-05
 -7.388949e-07
 -4.753894e-07
 4.456039e-07
 2.867060e-06
 -3.615533e-07
 3.544038e-05
 1.794500e-05
 1.685453e-05
 -1.482477e-05
 -1.441074e-06
 -1.342755e-06
 1.651788e-05
 6.920730e-07
 -3.283299e-05
 -4.896785e-07
 -9.287507e-07
 0.000000e+00