<VTKFile type="UnstructuredGrid"  version="0.1"   >
<UnstructuredGrid>  
<Piece  NumberOfPoints="     2601"  NumberOfCells="     5000">  
<Points>  
<DataArray  type="Float64"  NumberOfComponents="3"  format="ascii">  
 0.000000 0.000000 0.000000 
 0.020000 0.000000 0.000000 
 0.040000 0.000000 0.000000 
 0.060000 0.000000 0.000000 
 0.080000 0.000000 0.000000 
 0.100000 0.000000 0.000000 
 0.120000 0.000000 0.000000 
 0.140000 0.000000 0.000000 
 0.160000 0.000000 0.000000 
 0.180000 0.000000 0.000000 
 0.200000 0.000000 0.000000 
 0.220000 0.000000 0.000000 
 0.240000 0.000000 0.000000 
 0.260000 0.000000 0.000000 
 0.280000 0.000000 0.000000 
 0.300000 0.000000 0.000000 
 0.320000 0.000000 0.000000 
 0.340000 0.000000 0.000000 
 0.360000 0.000000 0.000000 
 0.380000 0.000000 0.000000 
 0.400000 0.000000 0.000000 
 0.420000 0.000000 0.000000 
 0.440000 0.000000 0.000000 
 0.460000 0.000000 0.000000 
 0.480000 0.000000 0.000000 
 0.500000 0.000000 0.000000 
 0.520000 0.000000 0.000000 
 0.540000 0.000000 0.000000 
 0.560000 0.000000 0.000000 
 0.580000 0.000000 0.000000 
 0.600000 0.000000 0.000000 
 0.620000 0.000000 0.000000 
 0.640000 0.000000 0.000000 
 0.660000 0.000000 0.000000 
 0.680000 0.000000 0.000000 
 0.700000 0.000000 0.000000 
 0.720000 0.000000 0.000000 
 0.740000 0.000000 0.000000 
 0.760000 0.000000 0.000000 
 0.780000 0.000000 0.000000 
 0.800000 0.000000 0.000000 
 0.820000 0.000000 0.000000 
 0.840000 0.000000 0.000000 
 0.860000 0.000000 0.000000 
 0.880000 0.000000 0.000000 
 0.900000 0.000000 0.000000 
 0.920000 0.000000 0.000000 
 0.940000 0.000000 0.000000 
 0.960000 0.000000 0.000000 
 0.980000 0.000000 0.000000 
 1.000000 0.000000 0.000000 
 0.000000 0.020000 0.000000 
 0.020000 0.020000 0.000000 
 0.040000 0.020000 0.000000 
 0.060000 0.020000 0.000000 
 0.080000 0.020000 0.000000 
 0.100000 0.020000 0.000000 
 0.120000 0.020000 0.000000 
 0.140000 0.020000 0.000000 
 0.160000 0.020000 0.000000 
 0.180000 0.020000 0.000000 
 0.200000 0.020000 0.000000 
 0.220000 0.020000 0.000000 
 0.240000 0.020000 0.000000 
 0.260000 0.020000 0.000000 
 0.280000 0.020000 0.000000 
 0.300000 0.020000 0.000000 
 0.320000 0.020000 0.000000 
 0.340000 0.020000 0.000000 
 0.360000 0.020000 0.000000 
 0.380000 0.020000 0.000000 
 0.400000 0.020000 0.000000 
 0.420000 0.020000 0.000000 
 0.440000 0.020000 0.000000 
 0.460000 0.020000 0.000000 
 0.480000 0.020000 0.000000 
 0.500000 0.020000 0.000000 
 0.520000 0.020000 0.000000 
 0.540000 0.020000 0.000000 
 0.560000 0.020000 0.000000 
 0.580000 0.020000 0.000000 
 0.600000 0.020000 0.000000 
 0.620000 0.020000 0.000000 
 0.640000 0.020000 0.000000 
 0.660000 0.020000 0.000000 
 0.680000 0.020000 0.000000 
 0.700000 0.020000 0.000000 
 0.720000 0.020000 0.000000 
 0.740000 0.020000 0.000000 
 0.760000 0.020000 0.000000 
 0.780000 0.020000 0.000000 
 0.800000 0.020000 0.000000 
 0.820000 0.020000 0.000000 
 0.840000 0.020000 0.000000 
 0.860000 0.020000 0.000000 
 0.880000 0.020000 0.000000 
 0.900000 0.020000 0.000000 
 0.920000 0.020000 0.000000 
 0.940000 0.020000 0.000000 
 0.960000 0.020000 0.000000 
 0.980000 0.020000 0.000000 
 1.000000 0.020000 0.000000 
 0.000000 0.040000 0.000000 
 0.020000 0.040000 0.000000 
 0.040000 0.040000 0.000000 
 0.060000 0.040000 0.000000 
 0.080000 0.040000 0.000000 
 0.100000 0.040000 0.000000 
 0.120000 0.040000 0.000000 
 0.140000 0.040000 0.000000 
 0.160000 0.040000 0.000000 
 0.180000 0.040000 0.000000 
 0.200000 0.040000 0.000000 
 0.220000 0.040000 0.000000 
 0.240000 0.040000 0.000000 
 0.260000 0.040000 0.000000 
 0.280000 0.040000 0.000000 
 0.300000 0.040000 0.000000 
 0.320000 0.040000 0.000000 
 0.340000 0.040000 0.000000 
 0.360000 0.040000 0.000000 
 0.380000 0.040000 0.000000 
 0.400000 0.040000 0.000000 
 0.420000 0.040000 0.000000 
 0.440000 0.040000 0.000000 
 0.460000 0.040000 0.000000 
 0.480000 0.040000 0.000000 
 0.500000 0.040000 0.000000 
 0.520000 0.040000 0.000000 
 0.540000 0.040000 0.000000 
 0.560000 0.040000 0.000000 
 0.580000 0.040000 0.000000 
 0.600000 0.040000 0.000000 
 0.620000 0.040000 0.000000 
 0.640000 0.040000 0.000000 
 0.660000 0.040000 0.000000 
 0.680000 0.040000 0.000000 
 0.700000 0.040000 0.000000 
 0.720000 0.040000 0.000000 
 0.740000 0.040000 0.000000 
 0.760000 0.040000 0.000000 
 0.780000 0.040000 0.000000 
 0.800000 0.040000 0.000000 
 0.820000 0.040000 0.000000 
 0.840000 0.040000 0.000000 
 0.860000 0.040000 0.000000 
 0.880000 0.040000 0.000000 
 0.900000 0.040000 0.000000 
 0.920000 0.040000 0.000000 
 0.940000 0.040000 0.000000 
 0.960000 0.040000 0.000000 
 0.980000 0.040000 0.000000 
 1.000000 0.040000 0.000000 
 0.000000 0.060000 0.000000 
 0.020000 0.060000 0.000000 
 0.040000 0.060000 0.000000 
 0.060000 0.060000 0.000000 
 0.080000 0.060000 0.000000 
 0.100000 0.060000 0.000000 
 0.120000 0.060000 0.000000 
 0.140000 0.060000 0.000000 
 0.160000 0.060000 0.000000 
 0.180000 0.060000 0.000000 
 0.200000 0.060000 0.000000 
 0.220000 0.060000 0.000000 
 0.240000 0.060000 0.000000 
 0.260000 0.060000 0.000000 
 0.280000 0.060000 0.000000 
 0.300000 0.060000 0.000000 
 0.320000 0.060000 0.000000 
 0.340000 0.060000 0.000000 
 0.360000 0.060000 0.000000 
 0.380000 0.060000 0.000000 
 0.400000 0.060000 0.000000 
 0.420000 0.060000 0.000000 
 0.440000 0.060000 0.000000 
 0.460000 0.060000 0.000000 
 0.480000 0.060000 0.000000 
 0.500000 0.060000 0.000000 
 0.520000 0.060000 0.000000 
 0.540000 0.060000 0.000000 
 0.560000 0.060000 0.000000 
 0.580000 0.060000 0.000000 
 0.600000 0.060000 0.000000 
 0.620000 0.060000 0.000000 
 0.640000 0.060000 0.000000 
 0.660000 0.060000 0.000000 
 0.680000 0.060000 0.000000 
 0.700000 0.060000 0.000000 
 0.720000 0.060000 0.000000 
 0.740000 0.060000 0.000000 
 0.760000 0.060000 0.000000 
 0.780000 0.060000 0.000000 
 0.800000 0.060000 0.000000 
 0.820000 0.060000 0.000000 
 0.840000 0.060000 0.000000 
 0.860000 0.060000 0.000000 
 0.880000 0.060000 0.000000 
 0.900000 0.060000 0.000000 
 0.920000 0.060000 0.000000 
 0.940000 0.060000 0.000000 
 0.960000 0.060000 0.000000 
 0.980000 0.060000 0.000000 
 1.000000 0.060000 0.000000 
 0.000000 0.080000 0.000000 
 0.020000 0.080000 0.000000 
 0.040000 0.080000 0.000000 
 0.060000 0.080000 0.000000 
 0.080000 0.080000 0.000000 
 0.100000 0.080000 0.000000 
 0.120000 0.080000 0.000000 
 0.140000 0.080000 0.000000 
 0.160000 0.080000 0.000000 
 0.180000 0.080000 0.000000 
 0.200000 0.080000 0.000000 
 0.220000 0.080000 0.000000 
 0.240000 0.080000 0.000000 
 0.260000 0.080000 0.000000 
 0.280000 0.080000 0.000000 
 0.300000 0.080000 0.000000 
 0.320000 0.080000 0.000000 
 0.340000 0.080000 0.000000 
 0.360000 0.080000 0.000000 
 0.380000 0.080000 0.000000 
 0.400000 0.080000 0.000000 
 0.420000 0.080000 0.000000 
 0.440000 0.080000 0.000000 
 0.460000 0.080000 0.000000 
 0.480000 0.080000 0.000000 
 0.500000 0.080000 0.000000 
 0.520000 0.080000 0.000000 
 0.540000 0.080000 0.000000 
 0.560000 0.080000 0.000000 
 0.580000 0.080000 0.000000 
 0.600000 0.080000 0.000000 
 0.620000 0.080000 0.000000 
 0.640000 0.080000 0.000000 
 0.660000 0.080000 0.000000 
 0.680000 0.080000 0.000000 
 0.700000 0.080000 0.000000 
 0.720000 0.080000 0.000000 
 0.740000 0.080000 0.000000 
 0.760000 0.080000 0.000000 
 0.780000 0.080000 0.000000 
 0.800000 0.080000 0.000000 
 0.820000 0.080000 0.000000 
 0.840000 0.080000 0.000000 
 0.860000 0.080000 0.000000 
 0.880000 0.080000 0.000000 
 0.900000 0.080000 0.000000 
 0.920000 0.080000 0.000000 
 0.940000 0.080000 0.000000 
 0.960000 0.080000 0.000000 
 0.980000 0.080000 0.000000 
 1.000000 0.080000 0.000000 
 0.000000 0.100000 0.000000 
 0.020000 0.100000 0.000000 
 0.040000 0.100000 0.000000 
 0.060000 0.100000 0.000000 
 0.080000 0.100000 0.000000 
 0.100000 0.100000 0.000000 
 0.120000 0.100000 0.000000 
 0.140000 0.100000 0.000000 
 0.160000 0.100000 0.000000 
 0.180000 0.100000 0.000000 
 0.200000 0.100000 0.000000 
 0.220000 0.100000 0.000000 
 0.240000 0.100000 0.000000 
 0.260000 0.100000 0.000000 
 0.280000 0.100000 0.000000 
 0.300000 0.100000 0.000000 
 0.320000 0.100000 0.000000 
 0.340000 0.100000 0.000000 
 0.360000 0.100000 0.000000 
 0.380000 0.100000 0.000000 
 0.400000 0.100000 0.000000 
 0.420000 0.100000 0.000000 
 0.440000 0.100000 0.000000 
 0.460000 0.100000 0.000000 
 0.480000 0.100000 0.000000 
 0.500000 0.100000 0.000000 
 0.520000 0.100000 0.000000 
 0.540000 0.100000 0.000000 
 0.560000 0.100000 0.000000 
 0.580000 0.100000 0.000000 
 0.600000 0.100000 0.000000 
 0.620000 0.100000 0.000000 
 0.640000 0.100000 0.000000 
 0.660000 0.100000 0.000000 
 0.680000 0.100000 0.000000 
 0.700000 0.100000 0.000000 
 0.720000 0.100000 0.000000 
 0.740000 0.100000 0.000000 
 0.760000 0.100000 0.000000 
 0.780000 0.100000 0.000000 
 0.800000 0.100000 0.000000 
 0.820000 0.100000 0.000000 
 0.840000 0.100000 0.000000 
 0.860000 0.100000 0.000000 
 0.880000 0.100000 0.000000 
 0.900000 0.100000 0.000000 
 0.920000 0.100000 0.000000 
 0.940000 0.100000 0.000000 
 0.960000 0.100000 0.000000 
 0.980000 0.100000 0.000000 
 1.000000 0.100000 0.000000 
 0.000000 0.120000 0.000000 
 0.020000 0.120000 0.000000 
 0.040000 0.120000 0.000000 
 0.060000 0.120000 0.000000 
 0.080000 0.120000 0.000000 
 0.100000 0.120000 0.000000 
 0.120000 0.120000 0.000000 
 0.140000 0.120000 0.000000 
 0.160000 0.120000 0.000000 
 0.180000 0.120000 0.000000 
 0.200000 0.120000 0.000000 
 0.220000 0.120000 0.000000 
 0.240000 0.120000 0.000000 
 0.260000 0.120000 0.000000 
 0.280000 0.120000 0.000000 
 0.300000 0.120000 0.000000 
 0.320000 0.120000 0.000000 
 0.340000 0.120000 0.000000 
 0.360000 0.120000 0.000000 
 0.380000 0.120000 0.000000 
 0.400000 0.120000 0.000000 
 0.420000 0.120000 0.000000 
 0.440000 0.120000 0.000000 
 0.460000 0.120000 0.000000 
 0.480000 0.120000 0.000000 
 0.500000 0.120000 0.000000 
 0.520000 0.120000 0.000000 
 0.540000 0.120000 0.000000 
 0.560000 0.120000 0.000000 
 0.580000 0.120000 0.000000 
 0.600000 0.120000 0.000000 
[...]
<PointData  Scalars="U"> 
<DataArray  type="Float64"  Name="U"  format="ascii"> 
 0.000000e+00
 0.000000e+00
 0.000000e+00
 0.000000e+00
 0.000000e+00
 0.000000e+00
 0.000000e+00
 0.000000e+00
 0.000000e+00
 0.000000e+00
 0.000000e+00
 0.000000e+00
 0.000000e+00
 0.000000e+00
 0.000000e+00
 0.000000e+00
 0.000000e+00
 0.000000e+00
 0.000000e+00
 0.000000e+00
 0.000000e+00
 0.000000e+00
 0.000000e+00
 0.000000e+00
 0.000000e+00
 0.000000e+00
 0.000000e+00
 0.000000e+00
 0.000000e+00
 0.000000e+00
 0.000000e+00
 0.000000e+00
 0.000000e+00
 0.000000e+00
 0.000000e+00
 0.000000e+00
 0.000000e+00
 0.000000e+00
 0.000000e+00
 0.000000e+00
 0.000000e+00
 0.000000e+00
 0.000000e+00
 0.000000e+00
 0.000000e+00
 0.000000e+00
 0.000000e+00
 0.000000e+00
 0.000000e+00
 0.000000e+00
 0.000000e+00
 0.000000e+00
 -2.280431e-09
 -7.469165e-09
 -1.976538e-08
 -4.366089e-08
 -7.080919e-08
 -5.588275e-08
 3.068992e-08
 1.106099e-07
 1.179068e-07
 8.792795e-08
 6.043558e-08
 6.274655e-08
 1.858691e-07
 1.265731e-06
 4.273815e-08
 -7.763156e-07
 -1.199385e-07
 2.367886e-08
 5.644074e-08
 6.003442e-08
 5.454737e-08
 5.149502e-08
 5.754034e-08
 7.171835e-08
 9.571307e-08
 1.540514e-07
 3.102695e-07
 6.909830e-07
 1.680672e-06
 3.810815e-06
 3.766190e-06
 1.042553e-06
 5.281739e-07
 4.771745e-07
 3.826834e-07
 1.754704e-05
 -5.282697e-08
 1.840044e-07
 4.331849e-07
 6.114927e-07
 6.746711e-07
 1.401189e-06
 3.585627e-06
 3.633462e-06
 9.288243e-07
 3.569494e-07
 1.744211e-07
 8.390178e-08
 3.154010e-08
 0.000000e+00
 0.000000e+00
 -1.904330e-09
 -8.114640e-09
 -2.683715e-08
 -7.532422e-08
 -1.827854e-07
 -2.115433e-07
 7.178075e-08
 3.193102e-07
 2.687894e-07
 1.695158e-07
 9.833686e-08
 4.315040e-08
 -1.226176e-09
 3.189155e-08
 -1.739281e-05
 1.031197e-07
 9.615485e-08
 1.240381e-07
 1.352608e-07
 1.288803e-07
 1.059539e-07
 9.213367e-08
 1.070610e-07
 1.375755e-07
 1.639905e-07
 2.176448e-07
 4.225275e-07
 9.174975e-07
 1.763375e-06
 3.468586e-06
 2.124466e-06
 6.105446e-07
 7.736266e-07
 7.795163e-07
 1.175035e-06
 7.717431e-08
 -1.029124e-06
 3.919583e-07
 7.866132e-07
 1.943298e-06
 9.052929e-07
 7.115566e-07
 3.064413e-06
 1.938056e-06
 4.614558e-07
 4.976295e-07
 2.740330e-07
 1.312555e-07
 5.513554e-08
 0.000000e+00
 0.000000e+00
 2.167207e-09
 2.294009e-09
 -6.747651e-09
 -4.809934e-08
 -2.036311e-07
 -1.262834e-06
 6.510394e-08
 9.961459e-07
 3.831988e-07
 2.213790e-07
 1.230426e-07
 1.010596e-08
 -1.861921e-07
 -8.286497e-07
 8.990519e-08
 1.412396e-06
 3.586601e-07
 2.331541e-07
 2.326058e-07
 2.204891e-07
 1.470589e-07
 9.657889e-08
 1.391712e-07
 2.157455e-07
 2.250232e-07
 1.344694e-07
 2.217351e-07
 8.024577e-07
 1.419900e-06
 1.683299e-06
 -1.585620e-05
 1.329484e-06
 1.025539e-06
 8.482259e-07
 5.576827e-07
 -8.932968e-07
 1.240173e-07
 1.251818e-06
 8.948785e-07
 6.983384e-07
 -1.681039e-05
 9.849800e-07
 1.357729e-06
 -1.593659e-05
 1.331300e-06
 7.253849e-07
 2.467526e-07
 1.141891e-07
 6.335934e-08
 0.000000e+00
 0.000000e+00
 7.538245e-09
 1.974709e-08
 3.887538e-08
 6.380717e-08
 9.634335e-08
 7.327506e-08
 1.753183e-05
 1.067003e-07
 2.199370e-07
 2.434441e-07
 1.637114e-07
 3.060925e-08
 -1.011435e-07
 -1.458394e-07
 9.645901e-08
 3.260235e-07
 2.706073e-07
 2.374402e-07
 3.500822e-07
 4.058129e-07
 1.610526e-07
 -2.194623e-08
 1.318397e-07
 3.707615e-07
 4.218921e-07
 3.009282e-08
 -1.097006e-06
 5.530069e-07
 1.678366e-06
 5.822398e-07
 1.308318e-06
 2.432452e-06
 1.200570e-06
 9.139769e-07
 7.084244e-07
 3.627671e-07
 1.762650e-05
 4.915430e-07
 1.709453e-06
 -2.141206e-07
 -1.892351e-07
 1.753869e-06
 3.680889e-07
 1.327514e-06
 3.555938e-06
 9.713568e-07
 -3.052179e-07
 1.012542e-07
 8.934460e-08
 0.000000e+00
 0.000000e+00
 7.810318e-09
 2.957242e-08
 7.859181e-08
 1.721467e-07
 3.708658e-07
 1.015052e-06
 4.494975e-08
 -1.271980e-06
 7.037699e-08
 4.049803e-07
 2.522328e-07
 4.044718e-08
 -2.938232e-08
 7.844515e-08
 2.284371e-07
 1.062170e-07
 -3.258127e-08
 1.022086e-07
 3.659101e-07
 1.478716e-06
 1.959897e-07
 -6.490594e-07
 1.172080e-07
 5.527520e-07
 1.644910e-06
 1.183931e-07
 -6.341395e-07
 1.798844e-05
 8.969272e-07
 9.515007e-07
 1.031563e-06
 1.108503e-06
 9.939696e-07
 9.281114e-07
 9.610185e-07
 1.270333e-06
 -9.018661e-07
 -1.071458e-06
 8.152619e-07
 -1.713989e-05
 5.031679e-07
 7.417795e-07
 7.377648e-07
 8.640962e-07
 1.050662e-06
 -1.659079e-05
 5.905095e-07
 3.407032e-07
 1.683864e-07
 0.000000e+00
 0.000000e+00
 -6.023324e-09
 1.210992e-08
 7.802145e-08
 2.017081e-07
 3.698032e-07
 4.651440e-07
 1.528041e-07
 -1.123596e-06
 2.621062e-07
 1.220818e-06
 3.063627e-07
 -1.122227e-07
 -1.249347e-07
 6.854977e-08
 1.211461e-06
 1.634500e-08
 -7.737516e-07
 -5.255895e-08
 1.243940e-07
 1.725707e-07
 -1.728901e-05
 2.232053e-07
 2.904320e-07
 4.682816e-07
 1.472900e-06
 -1.823469e-05
 3.453796e-07
 1.381289e-06
 5.381163e-08
 1.066850e-06
 8.458647e-07
 5.263090e-07
 5.447977e-07
 8.787249e-07
 1.117676e-06
 9.667251e-07
 3.994804e-07
 1.724224e-05
 -9.199688e-07
 1.396872e-07
 1.626006e-06
 7.292722e-07
 6.344326e-07
 5.110521e-07
 -1.178373e-07
 6.910310e-07
 1.837006e-06
 5.864248e-07
 2.399645e-07
 0.000000e+00
 0.000000e+00
 -4.354566e-08
 -5.553721e-08
 1.520866e-08
 1.837732e-07
 3.545164e-07
 4.561544e-07
 5.572912e-07
 5.817007e-07
 1.795693e-05
 1.362623e-06
 1.258680e-07
 -7.942502e-07
 -3.036730e-07
 -3.164229e-07
 -2.519159e-07
 -1.755134e-05
 7.928288e-08
 1.592651e-07
 8.774526e-08
 -7.136458e-07
 6.659839e-08
 1.470431e-06
 4.597835e-07
 1.939370e-07
 -3.963535e-07
 -1.700235e-05
 1.828784e-05
 9.352289e-07
 1.783690e-06
 2.352704e-06
 8.092910e-07
 -3.981317e-07
 -7.127780e-07
 8.459017e-07
 1.753008e-06
 1.071263e-06
 1.254000e-06
 -2.493131e-08
 -1.521737e-06
 -1.982445e-07
 3.587637e-07
 5.262451e-07
 5.385612e-07
 4.899304e-07
 4.115669e-07
 5.561078e-07
 6.966185e-07
 5.090984e-07
 2.325609e-07
 0.000000e+00
 0.000000e+00
 -1.068713e-07
 -2.092955e-07
 -1.737806e-07
 1.697433e-07
 4.367148e-07
 4.679502e-07
 7.841597e-07
 2.603718e-06
 4.575553e-07
 -1.718197e-06
 -1.744858e-05
 2.556898e-07
 -1.471624e-07
 -7.543959e-07
 -1.468748e-06
 -2.019499e-07
 1.437173e-06
 4.051054e-07
 1.152522e-06
 6.314897e-09
 -4.270761e-07
 4.337289e-07
 4.343319e-07
 1.805949e-07
 -3.348168e-07
 1.506722e-06
 2.148826e-06
 1.706182e-05
 4.313203e-07
 1.904910e-06
 -1.653588e-05
 1.295453e-07
 8.397864e-07
 1.854711e-05
 8.848476e-07
 6.555071e-07
 5.062998e-07
 7.374993e-08
 -3.441213e-07
 -2.746813e-07
 3.172913e-08
 3.047188e-07
 5.074705e-07
 5.938658e-07
 5.543589e-07
 5.051492e-07
 4.644994e-07
 3.495857e-07
 1.797388e-07
 0.000000e+00
 0.000000e+00
 -1.813492e-07
 -3.451281e-07
 -1.250956e-06
 1.758106e-07
 9.526913e-07
 1.389528e-07
 2.305777e-07
 7.349051e-07
 -1.690373e-05
 -4.496842e-07
 4.360106e-07
 2.845470e-06
 3.670301e-07
 -1.269982e-06
 -2.090098e-06
 -3.771060e-07
 8.971531e-07
 1.276101e-07
 -1.135019e-06
 -1.731272e-05
 1.143979e-06
 5.785925e-07
 4.457677e-07
 3.641785e-07
 4.721773e-07
 1.028667e-06
 1.742798e-06
 2.848944e-07
 -2.445598e-06
 -6.657212e-07
 -1.604553e-05
 2.467256e-06
 2.214485e-06
 2.333917e-06
 -2.636448e-07
 -1.553860e-07
 3.053465e-07
 8.063602e-08
 -2.674776e-07
 -4.459710e-07
 -2.367444e-07
 1.443259e-07
 5.947125e-07
 8.614753e-07
 6.795358e-07
 4.191935e-07
 3.386240e-07
 2.456779e-07
 1.278535e-07
 0.000000e+00
 0.000000e+00
 -3.064829e-07
 -3.837596e-07
 1.193463e-07
 1.796587e-05
 1.178599e-07
 -1.360426e-06
 -1.389519e-06
 1.596517e-07
 1.318376e-06
 1.802263e-06
 5.469210e-07
 5.706331e-07
 -1.589256e-05
 1.255982e-07
 -9.837099e-07
 1.709363e-05
 -1.551061e-07
 -1.506746e-07
 -7.819802e-07
 1.763048e-05
 1.552494e-06
 5.772215e-07
 4.426446e-07
 4.448195e-07
 5.679721e-07
 8.074079e-07
 9.082617e-07
 4.974186e-07
 -2.162910e-07
 1.645374e-05
 2.029991e-07
 2.059935e-06
 1.404484e-06
 1.204661e-06
 -1.659455e-05
 1.777862e-06
 5.287352e-07
 5.920042e-07
 -2.260187e-07
 -1.165392e-06
 -6.038286e-07
 -1.045544e-07
 7.186166e-07
 2.172666e-06
 9.526048e-07
 1.837985e-09
 3.118198e-07
 1.511446e-07
 8.866822e-08
 0.000000e+00
 0.000000e+00
 -3.172879e-07
 -2.254943e-06
 1.056564e-06
 1.926967e-06
 -8.007895e-07
 -2.472595e-07
 1.709554e-05
 1.708166e-05
 1.223053e-07
 1.612010e-06
 2.801960e-07
 -1.259122e-06
 3.665750e-07
 -1.555351e-05
 1.167489e-06
 -1.600742e-07
 -1.397964e-06
 -1.277943e-07
 7.047538e-07
 1.418067e-07
 -8.358769e-07
 2.456473e-07
 3.463827e-07
 4.077082e-07
 5.020490e-07
 6.530749e-07
 7.992324e-07
 8.111702e-07
 1.033131e-06
 -2.442753e-07
 -1.440645e-06
 -7.739618e-07
 7.672912e-07
 7.436359e-07
 6.584978e-07
 1.677236e-06
 -1.696708e-05
 3.063362e-07
 -1.732280e-05
 -1.400551e-07
 -1.483989e-06
 -1.338822e-06
 8.537640e-07
 1.472332e-06
 -1.636147e-05
 1.995464e-06
 6.637360e-07
 -2.119758e-07
 1.559175e-07
 0.000000e+00
 0.000000e+00
 1.532950e-07
 3.371896e-07
 3.549750e-05
 3.898393e-07
 2.536156e-08
 5.305402e-07
 2.749978e-07
 -1.965223e-06
 -1.886432e-06
 -5.303144e-08
 -1.717894e-05
 6.724481e-08
 -2.964659e-07
 1.907973e-06
 1.832003e-06
 -4.829291e-07
 -2.489050e-07
 1.487449e-08
 2.794801e-07
 2.210148e-07
 7.132463e-08
 1.419916e-07
 2.609400e-07
 3.358609e-07
 3.661580e-07
 4.732380e-07
 8.913967e-07
 1.150970e-06
 7.170313e-07
 -4.339388e-08
 -1.267255e-06
 2.134583e-07
 1.861371e-05
 2.496389e-07
 -7.127538e-08
 -5.823733e-07
 1.341653e-07
 7.851028e-07
 6.742437e-07
 1.707633e-06
 4.126860e-07
 1.739595e-05
 1.605142e-05
 -8.362954e-07
 9.093176e-07
 1.780268e-06
 -1.660196e-05
 1.868086e-06
 6.064206e-07
 0.000000e+00
 0.000000e+00
 3.859700e-07
 2.030689e-06
 5.790525e-07
 -1.203337e-06
 -5.240010e-07
 -8.514958e-07
 -2.996903e-07
 -1.927599e-06
 -2.059775e-06
 -3.384863e-07
 9.307036e-07
 1.506369e-06
 3.467215e-07
 2.895542e-07
 -1.714099e-05
 2.579019e-07
 1.558428e-07
 2.259032e-07
 3.201218e-07
 3.066266e-07
 2.010118e-07
 1.531800e-07
 2.039465e-07
 2.995379e-07
 3.274644e-07
 -5.916101e-07
 8.932699e-07
 2.855124e-06
 8.615448e-07
 -2.570656e-07
 3.843484e-07
 1.864181e-05
 3.676491e-07
 -1.062800e-06
 -1.360403e-06
 -3.116896e-07
 -5.255630e-07
 1.710598e-07
 1.207606e-06
 9.706942e-07
 1.581557e-06
 1.123975e-06
 -1.362739e-06
 1.556818e-05
 -1.693804e-06
 -7.377728e-07
 -9.662134e-08
 1.719824e-06
 -1.624386e-05
 0.000000e+00
 0.000000e+00
 -8.934380e-07
 5.533581e-07
 9.341530e-07
 -4.020184e-07
 -1.902857e-05
 -9.954929e-08
 7.690956e-07
 -1.956852e-08
 1.716739e-05
 1.711617e-05
 -2.746942e-07
 -3.998071e-08
 9.920511e-07
 -8.001729e-07
 -6.573151e-07
 1.333510e-06
 4.371670e-07
 3.964663e-07
 5.010995e-07
 5.176430e-07
 2.414616e-07
 4.921649e-08
 1.052074e-07
 2.764006e-07
 6.837619e-07
 7.657309e-07
 1.805433e-05
 6.384787e-07
 -1.673734e-05
 8.405204e-07
 1.474176e-06
 6.430723e-07
 -7.519670e-07
 1.150492e-06
 1.573682e-07
 1.796111e-05
 -9.179352e-08
 1.671793e-05
 -3.574053e-08
 3.204164e-07
 7.605147e-07
 8.023283e-07
 7.531655e-07
 -2.703943e-07
 -1.363985e-06
 1.711404e-05
 -2.810307e-07
 1.674228e-05
 -7.314896e-08
 0.000000e+00
 0.000000e+00
 1.123702e-07
 1.756042e-05
 -2.042126e-07
 -9.761012e-07
 -1.291196e-07
 1.874495e-05
 4.259180e-07
 1.054286e-06
 7.894985e-07
 -4.124416e-07
 -1.903997e-06
 -1.494262e-06
 -5.908983e-07
 -1.778999e-05
 4.448510e-08
 3.488797e-07
 3.976620e-07
 4.433968e-07
 6.254339e-07
 1.607403e-06
 2.465960e-07
 -4.625138e-07
 1.834348e-07
 -7.380492e-07
 1.744668e-06
 2.248305e-06
 -6.328672e-08
 -1.528557e-06
 5.038076e-07
 1.972906e-06
 9.166799e-07
 4.873883e-07
 1.204909e-07
 2.674505e-07
 -1.639145e-05
 4.820676e-07
 -1.761090e-05
 -1.429440e-08
 -1.329374e-06
 -1.175268e-06
 3.677405e-07
 1.169391e-06
 -6.015099e-07
 4.310197e-07
 1.696635e-06
 7.296149e-08
 -8.860746e-07
 -6.701261e-07
 -1.543253e-06
 0.000000e+00
 0.000000e+00
 8.467516e-07
 -2.757335e-08
 -1.414749e-06
 -2.895933e-07
 7.535843e-07
 2.333285e-07
 -9.841398e-07
 6.739360e-08
 -8.625768e-08
 -5.992588e-07
 -1.833160e-05
 -8.381964e-07
 -1.278697e-06
 -1.893762e-07
 1.288103e-06
 2.870123e-07
 1.589608e-07
 3.826329e-07
 5.619289e-07
 4.232882e-07
 -1.807494e-05
 6.961215e-07
 1.276517e-06
 2.556446e-07
 1.666627e-05
 -1.684558e-05
 1.322258e-06
 4.569318e-07
 6.458943e-07
 7.286186e-07
 4.502139e-07
 2.493180e-07
 2.376614e-08
 -5.729495e-07
 3.601630e-07
 1.064220e-06
 7.903538e-07
 1.540067e-06
 1.137144e-07
 1.137903e-07
 1.776585e-05
 3.696523e-07
 3.554506e-07
 1.789877e-05
 1.481746e-06
 3.664270e-08
 -1.055811e-06
 -5.450971e-07
 -3.972852e-07
 0.000000e+00
 0.000000e+00
 1.768927e-07
 -5.482949e-09
 -2.509598e-07
 -1.177991e-07
 1.460202e-07
 7.809573e-08
 -1.461983e-07
 -2.152258e-07
 -4.626634e-07
 -1.331651e-06
 -5.935291e-07
 6.795326e-07
 -3.087167e-07
 -9.381372e-08
 2.318462e-07
 1.344398e-07
 -9.886120e-07
 2.710517e-07
 1.043488e-06
 -1.493103e-07
 7.699133e-07
 2.062865e-05
 9.183008e-07
 3.882533e-07
 -6.054796e-07
 1.656321e-05
 1.479084e-06
 7.202442e-07
 1.746339e-06
 5.105051e-07
 -4.125295e-07
 1.051299e-07
 9.572550e-08
 4.501493e-08
 2.639946e-07
 6.201188e-07
 1.845277e-06
 6.978606e-07
 -1.208619e-07
 1.118171e-06
 4.017632e-07
 -8.070535e-07
 7.904933e-07
 -1.398255e-08
 -1.260412e-06
 -1.767498e-05
 -1.129655e-07
 -1.474349e-07
 -1.103524e-07
 0.000000e+00
 0.000000e+00
 4.798806e-08
 8.400638e-09
 -5.002365e-08
 -2.487794e-08
 3.284988e-08
 1.462318e-08
 -6.480780e-08
 -1.616666e-07
 -3.567719e-07
 -6.001098e-07
 -5.028167e-07
 -2.201912e-07
 -1.203631e-07
 -6.537990e-09
 1.591554e-07
 2.609564e-07
 2.510973e-07
 1.770163e-05
 2.258327e-07
 3.908590e-07
 1.290777e-06
 7.739596e-07
 -1.788592e-05
 6.769623e-07
 1.059817e-06
 9.316436e-08
 -9.355584e-07
 1.965344e-07
 3.567349e-07
 -1.705549e-05
 3.961633e-07
 3.122463e-07
 2.534135e-07
 2.165973e-07
 2.494846e-07
 3.062319e-07
 4.168150e-07
 -1.693891e-05
 6.673734e-07
 8.126711e-07
 6.536892e-07
 1.498528e-07
 -9.644121e-08
 -3.603064e-07
 -1.127933e-06
 -1.094269e-07
 1.320417e-06
 2.564645e-07
 6.511633e-08
 0.000000e+00
 0.000000e+00
 4.361867e-08
 4.959603e-08
 3.015126e-08
 2.235636e-08
 2.769563e-08
 2.050034e-08
 -1.606458e-09
 -1.339683e-10
 -7.510543e-08
 -3.902451e-07
 -5.449580e-07
 -3.454850e-07
 -1.334253e-07
 2.798959e-08
 1.876635e-07
 4.187792e-07
 1.101010e-06
 2.310759e-07
 -1.039553e-06
 1.114842e-07
 2.948650e-07
 -3.603339e-07
 4.700928e-07
 1.934453e-06
 7.699169e-07
 2.388359e-07
 1.454203e-08
 -3.342323e-08
 -5.746007e-07
 3.528984e-07
 1.665835e-06
 5.811435e-07
 3.858284e-07
 2.953911e-07
 2.131813e-07
 2.914645e-08
 -6.267414e-07
 3.124120e-07
 1.746283e-06
 8.889640e-07
 1.746783e-06
 2.627564e-07
 -8.271213e-07
 -3.822178e-07
 -2.601235e-07
 1.402633e-07
 4.805519e-07
 3.653334e-07
 1.249948e-07
 0.000000e+00
 0.000000e+00
 8.794102e-08
 1.218723e-07
 8.984384e-08
 5.053993e-08
 4.042170e-08
 4.911426e-08
 4.223652e-08
 7.461959e-08
 1.031699e-06
 -2.864781e-07
 -1.117074e-06
 -3.698995e-07
 -9.555084e-08
 6.175957e-08
 1.787115e-07
 2.985487e-07
 3.939034e-07
 2.463208e-07
 4.639389e-08
 7.764235e-08
 1.047622e-07
 6.808046e-08
 3.557107e-07
 1.707214e-06
 6.626980e-07
 -1.622162e-07
 2.947994e-07
 2.380768e-07
 1.173496e-07
 2.879572e-07
 5.595728e-07
 5.461957e-07
 4.399674e-07
 3.618677e-07
 2.550566e-07
 6.261485e-08
 -1.595739e-07
 -2.663008e-08
 3.742878e-07
 4.397070e-07
 4.354871e-07
 -1.709682e-05
 3.829182e-08
 -1.913736e-07
 9.742485e-08
 5.484873e-07
 7.107346e-07
 4.351856e-07
 2.161193e-08
 0.000000e+00
 0.000000e+00
 1.922426e-07
 2.782900e-07
 1.487494e-07
 4.138293e-08
 2.818304e-08
 1.020629e-07
 1.071272e-07
 -1.947174e-07
 -3.876944e-07
 -1.774895e-05
 -1.568479e-07
 -9.072252e-08
 3.257013e-08
 1.331816e-07
 1.710560e-07
 1.181681e-07
 7.299583e-08
 2.345408e-07
 3.349735e-07
 2.065780e-07
 8.568895e-08
 3.240845e-08
 -1.922739e-08
 -8.969532e-07
 -1.696680e-05
 1.418492e-06
 8.120475e-07
 6.622822e-07
 3.455145e-07
 1.774436e-07
 3.266708e-07
 4.400046e-07
 4.628272e-07
 4.559320e-07
 3.901291e-07
 2.094904e-07
 -6.075022e-08
 -1.136499e-06
 1.276437e-08
 -4.342841e-07
 -6.028419e-07
 8.783358e-07
 1.287245e-06
 -1.014083e-06
 1.815320e-07
 1.257113e-06
 1.745643e-06
 1.279180e-06
 -6.549157e-07
 0.000000e+00
 0.000000e+00
 1.509091e-07
 8.210862e-07
 1.013041e-07
 -6.179441e-08
 -6.662281e-08
 5.682216e-08
 1.060236e-06
 -4.106159e-07
 -1.895598e-06
 -2.344706e-07
 1.263878e-06
 1.920405e-07
 1.761764e-07
 2.751633e-07
 2.420987e-07
 9.700923e-08
 -1.009792e-06
 2.040887e-07
 9.934611e-07
 2.475231e-07
 3.630882e-09
 -6.898478e-08
 -7.816366e-08
 -5.762004e-07
 1.787407e-05
 1.795330e-06
 9.581494e-07
 1.868200e-06
 4.866556e-07
 -4.255343e-07
 2.468616e-07
 4.292669e-07
 4.938474e-07
 6.002089e-07
 6.696377e-07
 4.174231e-07
 1.870201e-07
 2.631687e-07
 1.778075e-05
 -9.131249e-08
 1.702386e-05
 -2.553358e-07
 7.343072e-08
 5.120538e-08
 1.752809e-05
 8.149548e-08
 -8.928675e-08
 -1.878328e-05
 -1.769668e-05
 0.000000e+00
 0.000000e+00
 1.725279e-05
 -3.245826e-07
 -3.290731e-07
 -2.848808e-07
 -2.484812e-07
 -2.899396e-07
 -3.066642e-07
 -1.786603e-05
 -3.739638e-07
 1.913894e-07
 6.528940e-07
 -5.552807e-07
 1.359878e-07
 6.599703e-07
 3.179436e-07
 4.859666e-07
 3.657547e-07
 1.767277e-05
 7.747437e-08
 -3.423461e-08
 -2.254172e-07
 -2.873743e-07
 9.725466e-08
 1.023944e-06
 3.398301e-07
 -7.660086e-07
 4.493739e-07
 6.484142e-07
 -1.693160e-05
 4.853145e-07
 4.969605e-07
 5.250143e-07
 4.759687e-07
 5.829091e-07
 1.865948e-06
 7.162533e-07
 -1.431386e-07
 1.211012e-06
 1.618697e-06
 -4.051678e-07
 -1.215499e-06
 -1.735078e-06
 -3.711450e-07
 4.915598e-07
 -5.616181e-08
 -1.205168e-06
 -1.037411e-06
 -1.142666e-06
 1.821232e-05
 0.000000e+00
 0.000000e+00
 -5.653531e-07
 -1.975848e-06
 -9.210001e-07
 -4.816031e-07
 -3.274890e-07
 -6.073208e-07
 -1.209006e-06
 -2.865258e-07
 2.347607e-07
 7.942647e-07
 1.703183e-06
 1.893366e-06
 1.758733e-05
 -1.946926e-06
 6.512757e-08
 1.287639e-06
 1.315179e-06
 2.032057e-07
 -1.245607e-06
 -3.175422e-07
 -3.976625e-07
 -1.506777e-06
 -1.262592e-07
 1.135135e-06
 4.918233e-07
 -8.863226e-07
 2.296015e-07
 2.629768e-07
 3.647384e-07
 1.721871e-06
 8.279109e-07
 7.065337e-07
 4.967471e-07
 -6.107066e-07
 6.722742e-07
 -1.615226e-05
 5.109223e-07
 4.413990e-07
 3.543811e-07
 -1.733655e-05
 -1.637058e-07
 -5.064141e-07
 -5.748996e-07
 -1.399075e-06
 -9.471632e-08
 7.640931e-07
 1.211168e-06
 -4.067198e-07
 -7.181991e-07
 0.000000e+00
 0.000000e+00
 -6.379777e-07
 -1.205005e-06
 -2.072261e-06
 -5.037272e-07
 3.328079e-07
 -1.452843e-06
 -4.736342e-07
 -3.747281e-07
 6.171108e-07
 1.890771e-05
 8.410740e-07
 1.293446e-06
 -1.721068e-05
 -1.138545e-06
 1.745603e-05
 3.364116e-07
 4.689730e-07
 1.728214e-07
 -1.753983e-07
 -2.077835e-07
 -1.530202e-07
 -2.794965e-07
 1.617547e-05
 8.008021e-08
 1.045117e-06
 4.634120e-07
 1.876391e-05
 -1.135552e-07
 -7.056147e-07
 5.507278e-07
 9.962417e-07
 9.774001e-07
 8.532136e-07
 4.829133e-07
 1.815136e-05
 3.127093e-07
 7.319385e-07
 1.333926e-07
 -5.516831e-07
 2.942486e-07
 1.431878e-06
 -8.846225e-08
 -5.582667e-07
 -4.930764e-07
 1.735528e-05
 1.558192e-07
 4.184128e-07
 -1.587147e-05
 1.785693e-05
 0.000000e+00
 0.000000e+00
 -5.500912e-07
 -1.501910e-06
 -6.449998e-07
 1.727973e-05
 -8.243418e-08
 -6.868179e-08
 1.749606e-05
 3.185871e-07
 1.861481e-05
 3.190180e-07
 -1.017720e-06
 -5.649822e-07
 2.610132e-07
 1.891956e-06
 2.207857e-07
 -8.805095e-07
 1.319398e-07
 1.103836e-07
 -7.073031e-09
 -2.011100e-08
 1.589591e-07
 8.546274e-07
 -3.950336e-08
 1.615381e-05
 -9.592293e-08
 7.421532e-07
 -1.670802e-08
 -1.875820e-05
 -1.101044e-06
 5.242557e-07
 1.609269e-06
 1.110943e-06
 1.946347e-06
 1.077205e-06
 -5.080688e-07
 -1.845963e-05
 1.600728e-07
 1.742053e-07
 1.257041e-07
 3.897067e-07
 1.501837e-06
 -8.486330e-08
 -1.161812e-06
 -7.353147e-07
 -1.392196e-08
 -5.738959e-07
 -6.750311e-07
 9.694847e-07
 -1.593303e-05
 0.000000e+00
 0.000000e+00
 -1.750306e-05
 -1.225026e-06
 5.089113e-07
 6.758644e-07
 -9.535795e-07
 7.708972e-07
 2.940568e-07
 -1.368113e-07
 2.035736e-07
 -1.099860e-06
 -2.344851e-07
 -6.486707e-08
 8.362890e-08
 -8.361242e-07
 1.482871e-07