<VTKFile type="UnstructuredGrid"  version="0.1"   >
<UnstructuredGrid>  
<Piece  NumberOfPoints="     2601"  NumberOfCells="     5000">  
<Points>  
<DataArray  type="Float64"  NumberOfComponents="3"  format="ascii">  
 0.000000 0.000000 0.000000 
 0.020000 0.000000 0.000000 
 0.040000 0.000000 0.000000 
 0.060000 0.000000 0.000000 
 0.080000 0.000000 0.000000 
 0.100000 0.000000 0.000000 
 0.120000 0.000000 0.000000 
 0.140000 0.000000 0.000000 
 0.160000 0.000000 0.000000 
 0.180000 0.000000 0.000000 
 0.200000 0.000000 0.000000 
 0.220000 0.000000 0.000000 
 0.240000 0.000000 0.000000 
 0.260000 0.000000 0.000000 
 0.280000 0.000000 0.000000 
 0.300000 0.000000 0.000000 
 0.320000 0.000000 0.000000 
 0.340000 0.000000 0.000000 
 0.360000 0.000000 0.000000 
 0.380000 0.000000 0.000000 
 0.400000 0.000000 0.000000 
 0.420000 0.000000 0.000000 
 0.440000 0.000000 0.000000 
 0.460000 0.000000 0.000000 
 0.480000 0.000000 0.000000 
 0.500000 0.000000 0.000000 
 0.520000 0.000000 0.000000 
 0.540000 0.000000 0.000000 
 0.560000 0.000000 0.000000 
 0.580000 0.000000 0.000000 
 0.600000 0.000000 0.000000 
 0.620000 0.000000 0.000000 
 0.640000 0.000000 0.000000 
 0.660000 0.000000 0.000000 
 0.680000 0.000000 0.000000 
 0.700000 0.000000 0.000000 
 0.720000 0.000000 0.000000 
 0.740000 0.000000 0.000000 
 0.760000 0.000000 0.000000 
 0.780000 0.000000 0.000000 
 0.800000 0.000000 0.000000 
 0.820000 0.000000 0.000000 
 0.840000 0.000000 0.000000 
 0.860000 0.000000 0.000000 
 0.880000 0.000000 0.000000 
 0.900000 0.000000 0.000000 
 0.920000 0.000000 0.000000 
 0.940000 0.000000 0.000000 
 0.960000 0.000000 0.000000 
 0.980000 0.000000 0.000000 
 1.000000 0.000000 0.000000 
 0.000000 0.020000 0.000000 
 0.020000 0.020000 0.000000 
 0.040000 0.020000 0.000000 
 0.060000 0.020000 0.000000 
 0.080000 0.020000 0.000000 
 0.100000 0.020000 0.000000 
 0.120000 0.020000 0.000000 
 0.140000 0.020000 0.000000 
 0.160000 0.020000 0.000000 
 0.180000 0.020000 0.000000 
 0.200000 0.020000 0.000000 
 0.220000 0.020000 0.000000 
 0.240000 0.020000 0.000000 
 0.260000 0.020000 0.000000 
 0.280000 0.020000 0.000000 
 0.300000 0.020000 0.000000 
 0.320000 0.020000 0.000000 
 0.340000 0.020000 0.000000 
 0.360000 0.020000 0.000000 
 0.380000 0.020000 0.000000 
 0.400000 0.020000 0.000000 
 0.420000 0.020000 0.000000 
 0.440000 0.020000 0.000000 
 0.460000 0.020000 0.000000 
 0.480000 0.020000 0.000000 
 0.500000 0.020000 0.000000 
 0.520000 0.020000 0.000000 
 0.540000 0.020000 0.000000 
 0.560000 0.020000 0.000000 
 0.580000 0.020000 0.000000 
 0.600000 0.020000 0.000000 
 0.620000 0.020000 0.000000 
 0.640000 0.020000 0.000000 
 0.660000 0.020000 0.000000 
 0.680000 0.020000 0.000000 
 0.700000 0.020000 0.000000 
 0.720000 0.020000 0.000000 
 0.740000 0.020000 0.000000 
 0.760000 0.020000 0.000000 
 0.780000 0.020000 0.000000 
 0.800000 0.020000 0.000000 
 0.820000 0.020000 0.000000 
 0.840000 0.020000 0.000000 
 0.860000 0.020000 0.000000 
 0.880000 0.020000 0.000000 
 0.900000 0.020000 0.000000 
 0.920000 0.020000 0.000000 
 0.940000 0.020000 0.000000 
 0.960000 0.020000 0.000000 
 0.980000 0.020000 0.000000 
 1.000000 0.020000 0.000000 
 0.000000 0.040000 0.000000 
 0.020000 0.040000 0.000000 
 0.040000 0.040000 0.000000 
 0.060000 0.040000 0.000000 
 0.080000 0.040000 0.000000 
 0.100000 0.040000 0.000000 
 0.120000 0.040000 0.000000 
 0.140000 0.040000 0.000000 
 0.160000 0.040000 0.000000 
 0.180000 0.040000 0.000000 
 0.200000 0.040000 0.000000 
 0.220000 0.040000 0.000000 
 0.240000 0.040000 0.000000 
 0.260000 0.040000 0.000000 
 0.280000 0.040000 0.000000 
 0.300000 0.040000 0.000000 
 0.320000 0.040000 0.000000 
 0.340000 0.040000 0.000000 
 0.360000 0.040000 0.000000 
 0.380000 0.040000 0.000000 
 0.400000 0.040000 0.000000 
 0.420000 0.040000 0.000000 
 0.440000 0.040000 0.000000 
 0.460000 0.040000 0.000000 
 0.480000 0.040000 0.000000 
 0.500000 0.040000 0.000000 
 0.520000 0.040000 0.000000 
 0.540000 0.040000 0.000000 
 0.560000 0.040000 0.000000 
 0.580000 0.040000 0.000000 
 0.600000 0.040000 0.000000 
 0.620000 0.040000 0.000000 
 0.640000 0.040000 0.000000 
 0.660000 0.040000 0.000000 
 0.680000 0.040000 0.000000 
 0.700000 0.040000 0.000000 
 0.720000 0.040000 0.000000 
 0.740000 0.040000 0.000000 
 0.760000 0.040000 0.000000 
 0.780000 0.040000 0.000000 
 0.800000 0.040000 0.000000 
 0.820000 0.040000 0.000000 
 0.840000 0.040000 0.000000 
 0.860000 0.040000 0.000000 
 0.880000 0.040000 0.000000 
 0.900000 0.040000 0.000000 
 0.920000 0.040000 0.000000 
 0.940000 0.040000 0.000000 
 0.960000 0.040000 0.000000 
 0.980000 0.040000 0.000000 
 1.000000 0.040000 0.000000 
 0.000000 0.060000 0.000000 
 0.020000 0.060000 0.000000 
 0.040000 0.060000 0.000000 
 0.060000 0.060000 0.000000 
 0.080000 0.060000 0.000000 
 0.100000 0.060000 0.000000 
 0.120000 0.060000 0.000000 
 0.140000 0.060000 0.000000 
 0.160000 0.060000 0.000000 
 0.180000 0.060000 0.000000 
 0.200000 0.060000 0.000000 
 0.220000 0.060000 0.000000 
 0.240000 0.060000 0.000000 
 0.260000 0.060000 0.000000 
 0.280000 0.060000 0.000000 
 0.300000 0.060000 0.000000 
 0.320000 0.060000 0.000000 
 0.340000 0.060000 0.000000 
 0.360000 0.060000 0.000000 
 0.380000 0.060000 0.000000 
 0.400000 0.060000 0.000000 
 0.420000 0.060000 0.000000 
 0.440000 0.060000 0.000000 
 0.460000 0.060000 0.000000 
 0.480000 0.060000 0.000000 
 0.500000 0.060000 0.000000 
 0.520000 0.060000 0.000000 
 0.540000 0.060000 0.000000 
 0.560000 0.060000 0.000000 
 0.580000 0.060000 0.000000 
 0.600000 0.060000 0.000000 
 0.620000 0.060000 0.000000 
 0.640000 0.060000 0.000000 
 0.660000 0.060000 0.000000 
 0.680000 0.060000 0.000000 
 0.700000 0.060000 0.000000 
 0.720000 0.060000 0.000000 
 0.740000 0.060000 0.000000 
 0.760000 0.060000 0.000000 
 0.780000 0.060000 0.000000 
 0.800000 0.060000 0.000000 
 0.820000 0.060000 0.000000 
 0.840000 0.060000 0.000000 
 0.860000 0.060000 0.000000 
 0.880000 0.060000 0.000000 
 0.900000 0.060000 0.000000 
 0.920000 0.060000 0.000000 
 0.940000 0.060000 0.000000 
 0.960000 0.060000 0.000000 
 0.980000 0.060000 0.000000 
 1.000000 0.060000 0.000000 
 0.000000 0.080000 0.000000 
 0.020000 0.080000 0.000000 
 0.040000 0.080000 0.000000 
 0.060000 0.080000 0.000000 
 0.080000 0.080000 0.000000 
 0.100000 0.080000 0.000000 
 0.120000 0.080000 0.000000 
 0.140000 0.080000 0.000000 
 0.160000 0.080000 0.000000 
 0.180000 0.080000 0.000000 
 0.200000 0.080000 0.000000 
 0.220000 0.080000 0.000000 
 0.240000 0.080000 0.000000 
 0.260000 0.080000 0.000000 
 0.280000 0.080000 0.000000 
 0.300000 0.080000 0.000000 
 0.320000 0.080000 0.000000 
 0.340000 0.080000 0.000000 
 0.360000 0.080000 0.000000 
 0.380000 0.080000 0.000000 
 0.400000 0.080000 0.000000 
 0.420000 0.080000 0.000000 
 0.440000 0.080000 0.000000 
 0.460000 0.080000 0.000000 
 0.480000 0.080000 0.000000 
 0.500000 0.080000 0.000000 
 0.520000 0.080000 0.000000 
 0.540000 0.080000 0.000000 
 0.560000 0.080000 0.000000 
 0.580000 0.080000 0.000000 
 0.600000 0.080000 0.000000 
 0.620000 0.080000 0.000000 
 0.640000 0.080000 0.000000 
 0.660000 0.080000 0.000000 
 0.680000 0.080000 0.000000 
 0.700000 0.080000 0.000000 
 0.720000 0.080000 0.000000 
 0.740000 0.080000 0.000000 
 0.760000 0.080000 0.000000 
 0.780000 0.080000 0.000000 
 0.800000 0.080000 0.000000 
 0.820000 0.080000 0.000000 
 0.840000 0.080000 0.000000 
 0.860000 0.080000 0.000000 
 0.880000 0.080000 0.000000 
 0.900000 0.080000 0.000000 
 0.920000 0.080000 0.000000 
 0.940000 0.080000 0.000000 
 0.960000 0.080000 0.000000 
 0.980000 0.080000 0.000000 
 1.000000 0.080000 0.000000 
 0.000000 0.100000 0.000000 
 0.020000 0.100000 0.000000 
 0.040000 0.100000 0.000000 
 0.060000 0.100000 0.000000 
 0.080000 0.100000 0.000000 
 0.100000 0.100000 0.000000 
 0.120000 0.100000 0.000000 
 0.140000 0.100000 0.000000 
 0.160000 0.100000 0.000000 
 0.180000 0.100000 0.000000 
 0.200000 0.100000 0.000000 
 0.220000 0.100000 0.000000 
 0.240000 0.100000 0.000000 
 0.260000 0.100000 0.000000 
 0.280000 0.100000 0.000000 
 0.300000 0.100000 0.000000 
 0.320000 0.100000 0.000000 
 0.340000 0.100000 0.000000 
 0.360000 0.100000 0.000000 
 0.380000 0.100000 0.000000 
 0.400000 0.100000 0.000000 
 0.420000 0.100000 0.000000 
 0.440000 0.100000 0.000000 
 0.460000 0.100000 0.000000 
 0.480000 0.100000 0.000000 
 0.500000 0.100000 0.000000 
 0.520000 0.100000 0.000000 
 0.540000 0.100000 0.000000 
 0.560000 0.100000 0.000000 
 0.580000 0.100000 0.000000 
 0.600000 0.100000 0.000000 
 0.620000 0.100000 0.000000 
 0.640000 0.100000 0.000000 
 0.660000 0.100000 0.000000 
 0.680000 0.100000 0.000000 
 0.700000 0.100000 0.000000 
 0.720000 0.100000 0.000000 
 0.740000 0.100000 0.000000 
 0.760000 0.100000 0.000000 
 0.780000 0.100000 0.000000 
 0.800000 0.100000 0.000000 
 0.820000 0.100000 0.000000 
 0.840000 0.100000 0.000000 
 0.860000 0.100000 0.000000 
 0.880000 0.100000 0.000000 
 0.900000 0.100000 0.000000 
 0.920000 0.100000 0.000000 
 0.940000 0.100000 0.000000 
 0.960000 0.100000 0.000000 
 0.980000 0.100000 0.000000 
 1.000000 0.100000 0.000000 
 0.000000 0.120000 0.000000 
 0.020000 0.120000 0.000000 
 0.040000 0.120000 0.000000 
 0.060000 0.120000 0.000000 
 0.080000 0.120000 0.000000 
 0.100000 0.120000 0.000000 
 0.120000 0.120000 0.000000 
 0.140000 0.120000 0.000000 
 0.160000 0.120000 0.000000 
 0.180000 0.120000 0.000000 
 0.200000 0.120000 0.000000 
 0.220000 0.120000 0.000000 
 0.240000 0.120000 0.000000 
 0.260000 0.120000 0.000000 
 0.280000 0.120000 0.000000 
 0.300000 0.120000 0.000000 
 0.320000 0.120000 0.000000 
 0.340000 0.120000 0.000000 
 0.360000 0.120000 0.000000 
 0.380000 0.120000 0.000000 
 0.400000 0.120000 0.000000 
 0.420000 0.120000 0.000000 
 0.440000 0.120000 0.000000 
 0.460000 0.120000 0.000000 
 0.480000 0.120000 0.000000 
 0.500000 0.120000 0.000000 
 0.520000 0.120000 0.000000 
 0.540000 0.120000 0.000000 
 0.560000 0.120000 0.000000 
 0.580000 0.120000 0.000000 
 0.600000 0.120000 0.000000 
[...]
<PointData  Scalars="U"> 
<DataArray  type="Float64"  Name="U"  format="ascii"> 
 0.000000e+00
 0.000000e+00
 0.000000e+00
 0.000000e+00
 0.000000e+00
 0.000000e+00
 0.000000e+00
 0.000000e+00
 0.000000e+00
 0.000000e+00
 0.000000e+00
 0.000000e+00
 0.000000e+00
 0.000000e+00
 0.000000e+00
 0.000000e+00
 0.000000e+00
 0.000000e+00
 0.000000e+00
 0.000000e+00
 0.000000e+00
 0.000000e+00
 0.000000e+00
 0.000000e+00
 0.000000e+00
 0.000000e+00
 0.000000e+00
 0.000000e+00
 0.000000e+00
 0.000000e+00
 0.000000e+00
 0.000000e+00
 0.000000e+00
 0.000000e+00
 0.000000e+00
 0.000000e+00
 0.000000e+00
 0.000000e+00
 0.000000e+00
 0.000000e+00
 0.000000e+00
 0.000000e+00
 0.000000e+00
 0.000000e+00
 0.000000e+00
 0.000000e+00
 0.000000e+00
 0.000000e+00
 0.000000e+00
 0.000000e+00
 0.000000e+00
 0.000000e+00
 -6.445284e-09
 -1.412400e-08
 -2.221732e-08
 -2.371369e-08
 -5.658442e-09
 3.349025e-08
 7.087894e-08
 8.595543e-08
 8.136741e-08
 6.751566e-08
 5.380523e-08
 6.254805e-08
 1.864511e-07
 1.261943e-06
 3.204189e-08
 -7.904977e-07
 -1.317359e-07
 1.558964e-08
 4.908600e-08
 5.383278e-08
 5.686348e-08
 6.938007e-08
 9.169726e-08
 1.229952e-07
 1.792952e-07
 3.160372e-07
 6.718074e-07
 1.657990e-06
 3.804637e-06
 3.771313e-06
 1.045115e-06
 5.213862e-07
 4.616536e-07
 3.650432e-07
 1.754003e-05
 -4.416092e-08
 1.808980e-07
 3.611166e-07
 5.861317e-07
 9.312718e-07
 1.620122e-06
 3.527075e-06
 3.541668e-06
 8.735603e-07
 3.376297e-07
 1.956635e-07
 1.318846e-07
 8.638286e-08
 4.047024e-08
 0.000000e+00
 0.000000e+00
 -1.141116e-08
 -2.676504e-08
 -4.935824e-08
 -6.879770e-08
 -3.822171e-08
 6.940947e-08
 1.695068e-07
 1.923592e-07
 1.711794e-07
 1.363868e-07
 9.289595e-08
 4.787926e-08
 5.522654e-09
 2.775647e-08
 -1.741833e-05
 6.730435e-08
 7.127110e-08
 1.125257e-07
 1.210185e-07
 1.074306e-07
 1.021167e-07
 1.285205e-07
 1.771594e-07
 2.272855e-07
 2.896336e-07
 4.439549e-07
 8.508794e-07
 1.692566e-06
 3.466214e-06
 2.151445e-06
 6.219182e-07
 7.590466e-07
 7.425463e-07
 1.124789e-06
 5.242596e-08
 -9.840892e-07
 4.503335e-07
 6.995594e-07
 9.056427e-07
 2.230949e-06
 1.637650e-06
 2.454165e-06
 1.773367e-06
 3.498557e-07
 4.478912e-07
 3.342784e-07
 2.502072e-07
 1.744000e-07
 9.043064e-08
 0.000000e+00
 0.000000e+00
 -1.258990e-08
 -3.089830e-08
 -7.088147e-08
 -1.637827e-07
 -1.768912e-07
 1.173234e-07
 3.714649e-07
 3.369173e-07
 2.692373e-07
 2.157975e-07
 1.337719e-07
 2.468496e-08
 -1.590496e-07
 -8.175383e-07
 3.598071e-08
 1.327080e-06
 3.183901e-07
 2.406465e-07
 2.206712e-07
 1.514465e-07
 1.083341e-07
 1.630807e-07
 2.665684e-07
 3.314462e-07
 3.232114e-07
 3.272052e-07
 5.697628e-07
 1.203993e-06
 1.755473e-06
 -1.575883e-05
 1.354560e-06
 9.971682e-07
 7.875278e-07
 4.352588e-07
 -1.007856e-06
 2.675479e-07
 1.533892e-06
 1.034459e-06
 6.840607e-07
 6.498699e-07
 -1.643574e-05
 1.500125e-06
 -1.589563e-05
 1.099690e-06
 5.687459e-07
 4.268725e-07
 3.647698e-07
 2.738945e-07
 1.472136e-07
 0.000000e+00
 0.000000e+00
 -9.799902e-09
 -1.659552e-08
 -4.006898e-08
 -1.690382e-07
 -1.205571e-06
 1.249433e-07
 1.031716e-06
 4.207340e-07
 3.507628e-07
 3.366373e-07
 1.969788e-07
 3.310580e-08
 -2.452766e-08
 -4.229995e-08
 -2.964462e-08
 8.726842e-08
 2.158627e-07
 3.479304e-07
 4.067070e-07
 1.662637e-07
 -1.171088e-08
 1.447342e-07
 4.014195e-07
 5.384040e-07
 3.388345e-07
 1.061047e-07
 -7.073785e-07
 7.871672e-07
 1.250266e-06
 1.498390e-06
 2.445448e-06
 1.126186e-06
 8.575007e-07
 6.106375e-07
 -6.743577e-07
 1.793471e-05
 1.449258e-06
 1.887934e-06
 3.288188e-07
 -1.145721e-06
 4.577483e-07
 1.597621e-06
 2.585404e-06
 2.351399e-06
 1.896475e-07
 5.163137e-07
 5.132732e-07
 4.134141e-07
 2.247895e-07
 0.000000e+00
 0.000000e+00
 -1.347135e-08
 5.527317e-09
 6.599184e-08
 1.498677e-07
 1.725692e-07
 1.764551e-05
 1.091604e-07
 9.601962e-08
 4.031565e-07
 6.474609e-07
 2.825802e-07
 -9.274777e-08
 -1.273994e-08
 1.118983e-06
 -3.261199e-08
 -7.480987e-07
 2.947911e-08
 3.653550e-07
 1.475783e-06
 2.007649e-07
 -6.350117e-07
 1.132094e-07
 4.907974e-07
 1.658638e-06
 4.328162e-07
 -3.094123e-07
 5.326417e-07
 1.831461e-05
 9.728537e-07
 1.190029e-06
 1.043939e-06
 7.216386e-07
 9.173442e-07
 1.229166e-06
 1.625463e-06
 1.792905e-05
 -1.009956e-06
 3.445118e-08
 -1.733726e-05
 1.682271e-07
 4.225266e-07
 7.486523e-07
 1.026880e-06
 -1.629481e-05
 1.008250e-06
 7.823574e-07
 7.359060e-07
 6.607247e-07
 3.296651e-07
 0.000000e+00
 0.000000e+00
 -5.376517e-08
 -2.068044e-08
 1.532023e-07
 4.520374e-07
 1.170218e-06
 3.366925e-07
 -1.059704e-06
 -1.219978e-06
 2.453254e-07
 2.334130e-06
 3.968022e-07
 -8.129122e-07
 -3.843440e-07
 -2.354790e-07
 -1.755597e-05
 6.386868e-08
 1.490966e-07
 1.616521e-07
 1.427206e-07
 -1.728904e-05
 2.722589e-07
 3.130505e-07
 3.479394e-07
 4.015994e-07
 -1.703656e-05
 6.708898e-07
 1.747051e-06
 1.242542e-06
 -1.386409e-07
 1.797269e-06
 6.603652e-07
 -1.112994e-06
 9.048908e-07
 2.036937e-06
 1.900417e-06
 3.898638e-07
 -1.521259e-06
 -1.144298e-06
 1.321006e-08
 1.477964e-06
 5.614149e-07
 4.431640e-07
 -9.228826e-08
 8.575669e-07
 2.111416e-06
 9.519227e-07
 8.165758e-07
 1.744744e-06
 4.316048e-07
 0.000000e+00
 0.000000e+00
 -1.828285e-07
 -2.129097e-07
 1.484802e-07
 5.382443e-07
 6.075787e-07
 4.618957e-07
 1.306212e-06
 1.408248e-07
 1.692538e-05
 2.514392e-07
 -1.709264e-05
 -4.808440e-08
 -5.886195e-07
 -1.232694e-06
 -1.928325e-07
 1.330585e-06
 4.375609e-07
 9.718005e-08
 -8.938565e-07
 3.961479e-08
 1.650890e-06
 5.986908e-07
 2.592741e-07
 -4.373029e-07
 3.849175e-07
 7.959400e-07
 1.279353e-06
 2.904853e-06
 7.545041e-07
 -8.431125e-08
 -1.666902e-05
 1.143191e-06
 1.872752e-05
 1.061938e-06
 7.494382e-07
 2.480499e-07
 -2.927142e-07
 -4.083201e-07
 -5.169372e-08
 3.576820e-07
 4.569008e-07
 4.181840e-07
 4.131199e-07
 6.526130e-07
 8.620123e-07
 7.024819e-07
 4.476284e-07
 3.318128e-07
 -1.724785e-05
 0.000000e+00
 0.000000e+00
 -2.960385e-07
 -1.385035e-06
 3.199696e-08
 1.047814e-06
 3.858285e-07
 9.028517e-08
 2.118312e-07
 -1.626882e-05
 4.478700e-07
 -1.512851e-06
 1.322690e-06
 1.280847e-06
 -9.435505e-07
 -7.368203e-07
 -4.216770e-07
 2.374786e-07
 5.892930e-07
 1.290264e-06
 -1.253326e-06
 -6.447652e-07
 1.171054e-06
 6.454126e-07
 3.747213e-07
 2.892245e-07
 5.611156e-07
 8.038749e-07
 1.809105e-05
 3.808265e-07
 -1.706463e-05
 3.370238e-08
 1.190877e-06
 3.427728e-06
 2.614768e-06
 -2.004749e-07
 -2.683232e-07
 1.607775e-07
 -1.263130e-08
 -1.506510e-07
 -8.829243e-08
 1.193264e-07
 3.239861e-07
 4.524931e-07
 5.078568e-07
 5.637122e-07
 5.729629e-07
 3.758146e-07
 -8.284202e-10
 -6.867488e-07
 2.448579e-08
 0.000000e+00
 0.000000e+00
 -1.953376e-07
 -3.217214e-07
 1.739034e-05
 1.632822e-07
 -8.634178e-10
 -4.261079e-07
 -1.807680e-06
 7.800363e-07
 2.710707e-06
 3.674407e-07
 1.417610e-07
 -1.705215e-05
 4.081096e-08
 -5.229563e-07
 -1.512253e-06
 -2.409789e-08
 9.540154e-07
 3.715826e-07
 -1.724468e-05
 1.773060e-05
 3.405886e-07
 4.170070e-07
 4.116069e-07
 4.939581e-07
 7.587225e-07
 1.422759e-06
 1.710322e-07
 -3.009482e-06
 5.779745e-08
 2.322312e-06
 1.073785e-06
 1.471576e-06
 1.407309e-06
 -1.649634e-05
 7.913965e-07
 4.820051e-07
 1.710270e-07
 -1.281182e-07
 -2.901902e-07
 -9.425855e-08
 2.750427e-07
 5.830633e-07
 5.724372e-07
 4.962256e-07
 5.080413e-07
 3.696163e-07
 -8.783214e-07
 -1.206369e-07
 5.042367e-07
 0.000000e+00
 0.000000e+00
 -7.019123e-08
 -6.032452e-07
 -2.603989e-07
 -5.387849e-07
 -1.524550e-07
 -1.332107e-06
 -9.923549e-08
 1.865761e-05
 1.872994e-06
 2.981738e-07
 -1.179235e-06
 1.434061e-06
 1.500541e-06
 -5.894125e-07
 -2.370728e-07
 1.733357e-05
 -1.304169e-07
 -5.064491e-07
 1.086849e-06
 1.557794e-06
 -7.617048e-07
 1.921850e-07
 3.635642e-07
 5.083143e-07
 7.082886e-07
 8.285531e-07
 5.126481e-07
 6.139967e-09
 1.747478e-05
 1.766962e-07
 -5.227029e-07
 8.226643e-07
 8.893019e-07
 1.012371e-06
 3.128409e-06
 8.055791e-07
 7.441941e-07
 -7.029831e-08
 -1.011851e-06
 -4.120983e-07
 1.226640e-07
 1.599313e-06
 7.762811e-07
 2.128523e-07
 6.392398e-07
 6.962685e-07
 1.707074e-06
 1.756067e-05
 -9.761458e-07
 0.000000e+00
 0.000000e+00
 9.389448e-08
 6.998360e-08
 1.630885e-05
 -3.481343e-07
 4.168072e-07
 4.831889e-08
 1.810085e-05
 -1.949994e-07
 -1.120139e-06
 -1.734469e-05
 1.984346e-07
 4.883179e-07
 -1.672969e-05
 4.745484e-07
 7.193114e-07
 -1.404856e-07
 -1.361351e-06
 -1.611528e-07
 3.555884e-07
 4.802954e-07
 2.269019e-07
 2.014616e-07
 3.166230e-07
 4.439397e-07
 6.403312e-07
 8.614310e-07
 9.804706e-07
 1.366804e-06
 2.011606e-07
 -2.117871e-06
 2.417734e-07
 1.861025e-05
 2.700589e-07
 1.509408e-07
 4.227261e-07
 -1.703004e-05
 4.281728e-07
 -1.711122e-05
 -2.033829e-08
 -1.398400e-06
 -3.457636e-07
 -2.697688e-07
 -1.669774e-05
 2.801991e-06
 1.019359e-06
 2.042126e-07
 2.429052e-06
 -1.720905e-05
 -1.946547e-06
 0.000000e+00
 0.000000e+00
 1.748413e-07
 9.492669e-07
 1.227034e-06
 1.611577e-05
 -1.154108e-06
 5.167760e-07
 -1.038018e-07
 -2.759714e-06
 -1.251056e-06
 7.388178e-07
 1.535710e-06
 -2.779693e-09
 1.642587e-06
 1.473611e-06
 -4.103517e-07
 -7.809526e-08
 -1.522856e-07
 2.798941e-08
 2.430178e-07
 2.697283e-07
 2.310295e-07
 2.473375e-07
 2.641545e-07
 2.921428e-07
 5.131426e-07
 1.070406e-06
 1.415497e-06
 1.078792e-06
 5.335765e-07
 3.990917e-07
 1.858203e-05
 2.301939e-07
 -1.335771e-06
 -1.589594e-06
 -9.587039e-07
 -4.362435e-07
 7.709584e-07
 1.268852e-06
 1.680134e-06
 1.721178e-07
 1.616539e-05
 -9.208037e-07
 1.716694e-05
 1.585354e-06
 -1.618861e-05
 5.653751e-07
 -8.033896e-08
 -1.706220e-05
 1.244511e-06
 0.000000e+00
 0.000000e+00
 2.237292e-08
 -8.352953e-07
 8.473044e-07
 -1.706399e-05
 -2.567355e-06
 -3.130366e-07
 4.757279e-07
 -2.842161e-07
 1.718556e-05
 -4.198948e-08
 2.539235e-07
 1.192308e-06
 1.193837e-07
 -1.791219e-05
 1.848518e-07
 1.723781e-07
 1.849282e-07
 3.229953e-07
 3.703233e-07
 1.237012e-07
 1.295763e-07
 3.209564e-07
 2.032405e-07
 7.935724e-08
 -5.197155e-07
 1.278800e-06
 3.198212e-06
 1.158055e-06
 1.335871e-07
 1.347351e-06
 6.916287e-07
 -7.831748e-07
 -2.262512e-07
 -2.644022e-07
 1.737333e-05
 -1.114564e-07
 1.736788e-05
 1.572350e-07
 6.128891e-07
 1.320971e-06
 4.565310e-07
 1.703995e-05
 -5.724932e-07
 1.518941e-05
 -1.254337e-06
 1.202521e-06
 2.289522e-07
 3.841434e-07
 1.520859e-06
 0.000000e+00
 0.000000e+00
 1.082192e-07
 4.046396e-08
 1.684637e-05
 -2.255871e-08
 9.749566e-07
 1.726761e-05
 -1.248810e-06
 6.226804e-07
 6.556458e-07
 -1.204036e-06
 -5.105031e-07
 -6.556359e-07
 -1.851453e-05
 1.064434e-07
 1.501312e-06
 4.571535e-07
 3.468664e-07
 5.316996e-07
 1.562546e-06
 -7.653254e-07
 -4.131125e-07
 9.561529e-07
 1.918277e-07
 -8.560071e-07
 8.060441e-07
 1.922310e-05
 9.533018e-07
 -1.663068e-05
 8.057570e-07
 7.789140e-07
 6.794334e-07
 1.455142e-06
 3.079555e-07
 3.474718e-07
 1.411974e-06
 -3.313058e-07
 -1.014678e-06
 -1.518585e-06
 -4.919466e-08
 7.321500e-07
 1.561684e-06
 1.461834e-06
 -1.628544e-06
 -1.313984e-06
 -1.006323e-06
 1.728851e-05
 -1.549526e-07
 4.853540e-08
 2.290541e-07
 0.000000e+00
 0.000000e+00
 2.553051e-07
 8.937778e-07
 -3.464996e-08
 -1.056035e-06
 8.316510e-07
 6.147434e-08
 -1.286179e-06
 1.724022e-05
 -2.061880e-07
 6.068191e-07
 -8.205692e-07
 -2.261930e-06
 -6.201723e-07
 1.224496e-06
 5.817825e-07
 3.873061e-07
 2.267225e-07
 4.526335e-07
 7.785197e-07
 -1.664261e-05
 1.822632e-05
 4.154753e-07
 1.699987e-07
 -5.394412e-07
 2.004185e-05
 1.245242e-06
 -2.058493e-06
 4.553711e-07
 1.789805e-06
 5.345293e-07
 3.283111e-07
 3.073111e-07
 -1.707028e-05
 5.416972e-07
 5.504009e-07
 -1.701929e-05
 1.605888e-08
 -4.562472e-07
 -1.250332e-06
 3.563265e-07
 1.231428e-06
 -5.113338e-07
 -1.605917e-05
 1.831301e-05
 -1.972555e-07
 -4.231297e-07
 -1.479715e-06
 -2.743666e-07
 -3.490092e-08
 0.000000e+00
 0.000000e+00
 1.884313e-07
 3.039256e-07
 1.390252e-07
 2.595720e-08
 2.173562e-07
 2.376695e-07
 5.829816e-07
 -3.949923e-07
 -1.793407e-06
 -8.178481e-07
 -1.818746e-05
 -6.549136e-07
 -3.542897e-07
 9.233786e-08
 3.825310e-07
 3.304663e-07
 -8.690879e-07
 2.775913e-07
 7.542140e-07
 1.852641e-06
 3.208795e-06
 -4.578969e-07
 -2.563060e-07
 1.178169e-06
 1.800023e-05
 -1.842325e-05
 1.240355e-08
 1.495689e-06
 6.173450e-07
 -3.331721e-07
 -7.130063e-10
 -5.835722e-07
 3.077941e-07
 1.516396e-06
 -6.974722e-08
 1.683574e-06
 1.611803e-06
 -3.322020e-07
 1.673668e-07
 1.770566e-05
 1.043719e-07
 -4.819522e-07
 1.846058e-05
 -1.605082e-05
 -9.138621e-07
 -2.475985e-07
 -3.432024e-07
 -2.344667e-07
 -8.270930e-08
 0.000000e+00
 0.000000e+00
 1.155673e-07
 1.756562e-07
 1.547277e-07
 1.339293e-07
 1.636451e-07
 1.720637e-07
 7.543737e-08
 -3.418673e-07
 -9.012820e-07
 -1.592075e-06
 -5.644421e-07
 9.291453e-07
 7.170507e-08
 -8.666671e-07
 2.691600e-07
 9.771656e-07
 3.533348e-07
 1.771534e-05
 3.141679e-07
 6.672359e-07
 7.832883e-07
 -1.688162e-05
 7.170740e-07
 1.283417e-06
 -4.838146e-07
 -1.236386e-06
 1.116224e-06
 4.298160e-07
 -1.699349e-05
 4.251822e-07
 2.398906e-07
 1.128876e-07
 2.548443e-07
 3.910867e-07
 2.429585e-07
 3.849102e-07
 -1.676866e-05
 9.316227e-07
 1.507382e-06
 3.269260e-07
 -1.195189e-06
 3.757210e-07
 -6.668192e-07
 -9.306647e-07
 1.190475e-06
 1.510189e-07
 -1.544091e-08
 -7.535383e-08
 -5.674876e-08
 0.000000e+00
 0.000000e+00
 9.865966e-08
 1.564315e-07
 1.643990e-07
 1.562016e-07
 1.556786e-07
 1.369621e-07
 3.040082e-08
 -2.452070e-07
 -6.264793e-07
 -8.189433e-07
 -4.907670e-07
 3.414404e-08
 4.027794e-07
 1.518662e-06
 1.776151e-05
 -4.097681e-07
 9.289175e-07
 1.923838e-07
 -1.057075e-06
 -2.479846e-08
 -4.290765e-07
 5.344797e-07
 1.869765e-06
 6.923649e-07
 1.394761e-07
 -3.720606e-08
 9.899926e-08
 -4.300894e-07
 4.475644e-07
 1.718171e-06
 5.805118e-07
 3.582435e-07
 2.925355e-07
 2.219369e-07
 1.327586e-08
 -6.075053e-07
 4.414223e-07
 2.070481e-06
 2.170543e-06
 4.845204e-07
 -7.465980e-07
 -1.870226e-07
 -1.800068e-07
 -1.911670e-08
 3.717971e-07
 4.138901e-07
 2.070089e-07
 1.470835e-09
 -6.743170e-08
 0.000000e+00
 0.000000e+00
 1.281725e-07
 1.968520e-07
 1.878948e-07
 1.605200e-07
 1.596576e-07
 1.811930e-07
 1.831571e-07
 -4.771132e-09
 -4.905848e-07
 -7.668032e-07
 -5.180575e-07
 -8.307879e-08
 3.280267e-07
 1.099372e-06
 -1.721698e-05
 -9.572362e-07
 2.243516e-07
 2.352012e-07
 -3.936136e-10
 -1.806272e-08
 8.821655e-08
 4.595049e-07
 6.933835e-07
 3.181205e-07
 1.442075e-07
 3.288310e-07
 3.222484e-07
 2.396840e-07
 4.223055e-07
 6.556797e-07
 5.922903e-07
 4.487712e-07
 3.390206e-07
 2.017825e-07
 7.193171e-09
 -1.705955e-07
 2.568885e-08
 4.691742e-07
 5.941659e-07
 -1.694305e-05
 3.861110e-07
 2.143228e-08
 -1.467486e-07
 1.788695e-07
 6.474448e-07
 7.726114e-07
 4.455767e-07
 -9.008574e-08
 -2.405207e-07
 0.000000e+00
 0.000000e+00
 2.226279e-07
 3.344599e-07
 2.235186e-07
 1.296456e-07
 1.332044e-07
 2.479580e-07
 3.936378e-07
 1.121587e-06
 -5.021260e-07
 -1.435081e-06
 -6.660276e-07
 -1.145635e-07
 1.742405e-07
 -4.176257e-07
 1.339064e-07
 1.152226e-06
 3.649601e-07
 4.314868e-07
 2.425737e-07
 1.158425e-07
 1.668558e-07
 4.219213e-07
 1.463882e-06
 -8.928536e-07
 -4.924559e-07
 1.112624e-06
 6.631044e-07
 4.771649e-07
 4.174950e-07
 4.725050e-07
 5.136018e-07
 5.026296e-07
 4.200394e-07
 2.450870e-07
 5.684918e-08
 -1.209036e-07
 -1.141350e-06
 -5.623400e-08
 -9.568727e-07
 4.253856e-07
 2.277794e-06
 2.277028e-07
 -1.209381e-06
 1.331428e-07
 1.302759e-06
 1.916829e-06
 1.542367e-06
 -6.482610e-07
 -8.833884e-07
 0.000000e+00
 0.000000e+00
 1.763428e-07
 8.664714e-07
 1.589094e-07
 2.889118e-09
 5.921923e-09
 1.467541e-07
 1.191266e-06
 -9.296083e-08
 -1.846054e-05
 -4.528266e-07
 -1.347956e-06
 -2.187811e-08
 8.003601e-07
 1.056045e-07
 1.692246e-08
 -8.744454e-07
 3.514848e-07
 1.090819e-06
 3.200776e-07
 7.546281e-08
 4.163174e-08
 1.497633e-07
 3.218350e-07
 -1.716022e-05
 1.779953e-05
 6.768006e-07
 9.480493e-07
 5.764249e-07
 2.638624e-07
 3.347599e-07
 4.854965e-07
 6.211390e-07
 6.215795e-07
 2.958278e-07
 3.595158e-08
 1.406561e-07
 3.041868e-07
 1.778949e-05
 -2.380870e-08
 1.745557e-05
 2.174901e-07
 -4.820644e-09
 -2.428952e-07
 1.739876e-05
 5.437503e-08
 3.111845e-08
 -1.740624e-05
 -1.709795e-05
 3.521816e-07
 0.000000e+00
 0.000000e+00
 1.727933e-05
 -2.813144e-07
 -2.829728e-07
 -2.442274e-07
 -2.169660e-07
 -2.784641e-07
 -3.748547e-07
 -1.838940e-05
 1.058292e-07
 1.593668e-06
 6.054463e-07
 1.763799e-05
 -1.212101e-07
 2.104083e-08
 2.423623e-07
 3.197640e-07
 1.774161e-05
 1.677899e-07
 5.054650e-08
 -1.511737e-07
 -2.562327e-07
 -9.735239e-08
 -2.980485e-07
 1.216809e-06
 6.742983e-07
 -2.397544e-07
 2.542619e-06
 6.084892e-07
 -4.516515e-07
 2.109754e-07
 4.843949e-07
 7.082372e-07
 1.732974e-06
 3.623821e-07
 -5.199735e-07
 3.390278e-07
 1.351213e-06
 1.695156e-06
 -3.071244e-07
 -9.647198e-07
 -5.197841e-07
 -5.069392e-07
 -2.598094e-07
 -7.745319e-08
 -1.327140e-06
 -1.340324e-06
 -2.127525e-06
 2.554988e-06
 2.598896e-06
 0.000000e+00
 0.000000e+00
 -5.270483e-07
 -1.918488e-06
 -8.785149e-07
 -4.630723e-07
 -3.303774e-07
 -6.373030e-07
 -1.273282e-06
 -2.473942e-07
 1.525398e-06
 1.166614e-06
 2.789550e-06
 3.906749e-07
 -2.060945e-06
 -1.590541e-07
 5.603362e-07
 1.269553e-06
 2.835620e-07
 -1.144185e-06
 -2.211435e-07
 -3.067012e-07
 -1.416342e-06
 -2.169003e-07
 7.581667e-07
 8.018873e-07
 1.051642e-06
 1.818794e-05
 4.123882e-07
 -1.717214e-05
 2.311513e-07
 3.033482e-07
 5.555920e-07
 5.874465e-07
 4.649254e-07
 -1.714010e-05
 3.169452e-07
 4.202542e-07
 5.548742e-07
 4.342107e-07
 -1.733661e-05
 -3.018163e-07
 -7.921807e-07
 -1.935922e-05
 -4.133399e-07
 8.982709e-07
 5.458221e-07
 6.604459e-08
 -1.570442e-06
 1.716500e-05
 -1.659612e-05
 0.000000e+00
 0.000000e+00
 -5.704261e-07
 -1.087976e-06
 -2.029605e-06
 -5.135640e-07
 3.014998e-07
 -1.507926e-06
 -5.622116e-07
 -5.027865e-07
 4.436362e-07
 2.650748e-07
 8.159458e-07
 -1.645379e-05
 -1.137883e-06
 1.907794e-08
 1.177610e-06
 7.249558e-07
 3.416784e-07
 -4.255206e-08
 -1.014928e-07
 -5.626948e-08
 -1.137989e-07
 1.721916e-05
 -1.191120e-06
 4.414440e-07
 2.147038e-06
 1.536346e-06
 -1.814271e-06
 1.994265e-07
 1.307968e-06
 1.540455e-07
 9.525283e-07
 7.277109e-07
 -4.134955e-07
 9.954998e-08
 1.423261e-06
 4.708483e-07
 2.571365e-07
 -4.254716e-07
 2.645363e-07
 9.369079e-07
 -1.180869e-06
 -6.954494e-07
 1.607443e-05
 2.650193e-07
 2.197746e-06
 3.062847e-06
 6.195315e-07
 1.475477e-05
 -1.863606e-06
 0.000000e+00
 0.000000e+00
 -7.024443e-07
 -1.053491e-06
 -6.968173e-07
 1.721712e-05
 -1.359968e-07
 -1.352904e-07
 1.738103e-05
 5.427790e-08
 1.772456e-05
 1.835844e-07
 1.698953e-05
 2.165860e-07
 1.231334e-06
 1.751812e-05
 2.223493e-07
 4.833746e-07
 3.440047e-07
 1.516106e-07
 8.542413e-08
 2.075835e-07
 8.509760e-07
 -1.672340e-08
 -1.322111e-06
 1.722270e-05
 -8.085016e-08
 -6.609446e-08
 -1.780805e-05
 -1.262248e-06
 -1.808419e-05
 1.788665e-06
 2.134983e-06
 2.081779e-06
 2.323528e-07
 -7.305239e-07
 8.688213e-08
 3.520190e-07
 3.142487e-07
 2.782482e-07
 1.354864e-06
 9.466369e-08
 -8.273041e-07
 6.277524e-07
 1.421260e-07
 3.379500e-05
 -1.693319e-07
 2.115186e-07
 -3.409514e-05
 -3.267571e-07
 -1.686242e-06
 0.000000e+00
 0.000000e+00
 -7.560826e-07
 -2.607580e-06
 1.655715e-07
 5.744018e-07
 -1.007226e-06
 7.227516e-07
 2.226941e-07
 -2.426562e-07
 2.075290e-07
 -2.512675e-07
 -4.035043e-08
 -9.723888e-07
 6.819370e-07
 -1.247909e-06
 -1.258769e-06
 7.695364e-07
 3.302547e-07
 2.004811e-07
 1.123408e-07
 1.266543e-07
 2.274811e-07
 1.784735e-07
 5.369791e-07
 -4.886518e-07
 -2.904840e-06
 -1.201366e-06
 6.325234e-07
 8.449898e-07
 1.818676e-05
 1.953320e-05
 2.040548e-06
 6.639681e-07
 -1.681340e-05
 -8.267302e-09
 -4.489117e-07
 4.588011e-07
 4.857732e-07
 2.880884e-07
 9.726915e-08
 -1.747445e-05
 8.562036e-08
 5.115805e-07
 1.885391e-06
 -1.022432e-07
 -3.133205e-06
 -2.229828e-06
 -6.123025e-08
 2.403860e-06
 9.449403e-08
 0.000000e+00
 0.000000e+00
 -1.767948e-05
 -9.434595e-07
 1.727700e-05
 -9.674787e-08
 -7.100530e-08
 1.764611e-07
 2.544495e-07
 2.294688e-07
 2.642944e-07
 3.702034e-07
 4.457328e-07
 2.428408e-07
 -1.843056e-08
 -3.092244e-07