<VTKFile type="UnstructuredGrid"  version="0.1"   >
<UnstructuredGrid>  
<Piece  NumberOfPoints="     2601"  NumberOfCells="     5000">  
<Points>  
<DataArray  type="Float64"  NumberOfComponents="3"  format="ascii">  
 0.000000 0.000000 0.000000 
 0.020000 0.000000 0.000000 
 0.040000 0.000000 0.000000 
 0.060000 0.000000 0.000000 
 0.080000 0.000000 0.000000 
 0.100000 0.000000 0.000000 
 0.120000 0.000000 0.000000 
 0.140000 0.000000 0.000000 
 0.160000 0.000000 0.000000 
 0.180000 0.000000 0.000000 
 0.200000 0.000000 0.000000 
 0.220000 0.000000 0.000000 
 0.240000 0.000000 0.000000 
 0.260000 0.000000 0.000000 
 0.280000 0.000000 0.000000 
 0.300000 0.000000 0.000000 
 0.320000 0.000000 0.000000 
 0.340000 0.000000 0.000000 
 0.360000 0.000000 0.000000 
 0.380000 0.000000 0.000000 
 0.400000 0.000000 0.000000 
 0.420000 0.000000 0.000000 
 0.440000 0.000000 0.000000 
 0.460000 0.000000 0.000000 
 0.480000 0.000000 0.000000 
 0.500000 0.000000 0.000000 
 0.520000 0.000000 0.000000 
 0.540000 0.000000 0.000000 
 0.560000 0.000000 0.000000 
 0.580000 0.000000 0.000000 
 0.600000 0.000000 0.000000 
 0.620000 0.000000 0.000000 
 0.640000 0.000000 0.000000 
 0.660000 0.000000 0.000000 
 0.680000 0.000000 0.000000 
 0.700000 0.000000 0.000000 
 0.720000 0.000000 0.000000 
 0.740000 0.000000 0.000000 
 0.760000 0.000000 0.000000 
 0.780000 0.000000 0.000000 
 0.800000 0.000000 0.000000 
 0.820000 0.000000 0.000000 
 0.840000 0.000000 0.000000 
 0.860000 0.000000 0.000000 
 0.880000 0.000000 0.000000 
 0.900000 0.000000 0.000000 
 0.920000 0.000000 0.000000 
 0.940000 0.000000 0.000000 
 0.960000 0.000000 0.000000 
 0.980000 0.000000 0.000000 
 1.000000 0.000000 0.000000 
 0.000000 0.020000 0.000000 
 0.020000 0.020000 0.000000 
 0.040000 0.020000 0.000000 
 0.060000 0.020000 0.000000 
 0.080000 0.020000 0.000000 
 0.100000 0.020000 0.000000 
 0.120000 0.020000 0.000000 
 0.140000 0.020000 0.000000 
 0.160000 0.020000 0.000000 
 0.180000 0.020000 0.000000 
 0.200000 0.020000 0.000000 
 0.220000 0.020000 0.000000 
 0.240000 0.020000 0.000000 
 0.260000 0.020000 0.000000 
 0.280000 0.020000 0.000000 
 0.300000 0.020000 0.000000 
 0.320000 0.020000 0.000000 
 0.340000 0.020000 0.000000 
 0.360000 0.020000 0.000000 
 0.380000 0.020000 0.000000 
 0.400000 0.020000 0.000000 
 0.420000 0.020000 0.000000 
 0.440000 0.020000 0.000000 
 0.460000 0.020000 0.000000 
 0.480000 0.020000 0.000000 
 0.500000 0.020000 0.000000 
 0.520000 0.020000 0.000000 
 0.540000 0.020000 0.000000 
 0.560000 0.020000 0.000000 
 0.580000 0.020000 0.000000 
 0.600000 0.020000 0.000000 
 0.620000 0.020000 0.000000 
 0.640000 0.020000 0.000000 
 0.660000 0.020000 0.000000 
 0.680000 0.020000 0.000000 
 0.700000 0.020000 0.000000 
 0.720000 0.020000 0.000000 
 0.740000 0.020000 0.000000 
 0.760000 0.020000 0.000000 
 0.780000 0.020000 0.000000 
 0.800000 0.020000 0.000000 
 0.820000 0.020000 0.000000 
 0.840000 0.020000 0.000000 
 0.860000 0.020000 0.000000 
 0.880000 0.020000 0.000000 
 0.900000 0.020000 0.000000 
 0.920000 0.020000 0.000000 
 0.940000 0.020000 0.000000 
 0.960000 0.020000 0.000000 
 0.980000 0.020000 0.000000 
 1.000000 0.020000 0.000000 
 0.000000 0.040000 0.000000 
 0.020000 0.040000 0.000000 
 0.040000 0.040000 0.000000 
 0.060000 0.040000 0.000000 
 0.080000 0.040000 0.000000 
 0.100000 0.040000 0.000000 
 0.120000 0.040000 0.000000 
 0.140000 0.040000 0.000000 
 0.160000 0.040000 0.000000 
 0.180000 0.040000 0.000000 
 0.200000 0.040000 0.000000 
 0.220000 0.040000 0.000000 
 0.240000 0.040000 0.000000 
 0.260000 0.040000 0.000000 
 0.280000 0.040000 0.000000 
 0.300000 0.040000 0.000000 
 0.320000 0.040000 0.000000 
 0.340000 0.040000 0.000000 
 0.360000 0.040000 0.000000 
 0.380000 0.040000 0.000000 
 0.400000 0.040000 0.000000 
 0.420000 0.040000 0.000000 
 0.440000 0.040000 0.000000 
 0.460000 0.040000 0.000000 
 0.480000 0.040000 0.000000 
 0.500000 0.040000 0.000000 
 0.520000 0.040000 0.000000 
 0.540000 0.040000 0.000000 
 0.560000 0.040000 0.000000 
 0.580000 0.040000 0.000000 
 0.600000 0.040000 0.000000 
 0.620000 0.040000 0.000000 
 0.640000 0.040000 0.000000 
 0.660000 0.040000 0.000000 
 0.680000 0.040000 0.000000 
 0.700000 0.040000 0.000000 
 0.720000 0.040000 0.000000 
 0.740000 0.040000 0.000000 
 0.760000 0.040000 0.000000 
 0.780000 0.040000 0.000000 
 0.800000 0.040000 0.000000 
 0.820000 0.040000 0.000000 
 0.840000 0.040000 0.000000 
 0.860000 0.040000 0.000000 
 0.880000 0.040000 0.000000 
 0.900000 0.040000 0.000000 
 0.920000 0.040000 0.000000 
 0.940000 0.040000 0.000000 
 0.960000 0.040000 0.000000 
 0.980000 0.040000 0.000000 
 1.000000 0.040000 0.000000 
 0.000000 0.060000 0.000000 
 0.020000 0.060000 0.000000 
 0.040000 0.060000 0.000000 
 0.060000 0.060000 0.000000 
 0.080000 0.060000 0.000000 
 0.100000 0.060000 0.000000 
 0.120000 0.060000 0.000000 
 0.140000 0.060000 0.000000 
 0.160000 0.060000 0.000000 
 0.180000 0.060000 0.000000 
 0.200000 0.060000 0.000000 
 0.220000 0.060000 0.000000 
 0.240000 0.060000 0.000000 
 0.260000 0.060000 0.000000 
 0.280000 0.060000 0.000000 
 0.300000 0.060000 0.000000 
 0.320000 0.060000 0.000000 
 0.340000 0.060000 0.000000 
 0.360000 0.060000 0.000000 
 0.380000 0.060000 0.000000 
 0.400000 0.060000 0.000000 
 0.420000 0.060000 0.000000 
 0.440000 0.060000 0.000000 
 0.460000 0.060000 0.000000 
 0.480000 0.060000 0.000000 
 0.500000 0.060000 0.000000 
 0.520000 0.060000 0.000000 
 0.540000 0.060000 0.000000 
 0.560000 0.060000 0.000000 
 0.580000 0.060000 0.000000 
 0.600000 0.060000 0.000000 
 0.620000 0.060000 0.000000 
 0.640000 0.060000 0.000000 
 0.660000 0.060000 0.000000 
 0.680000 0.060000 0.000000 
 0.700000 0.060000 0.000000 
 0.720000 0.060000 0.000000 
 0.740000 0.060000 0.000000 
 0.760000 0.060000 0.000000 
 0.780000 0.060000 0.000000 
 0.800000 0.060000 0.000000 
 0.820000 0.060000 0.000000 
 0.840000 0.060000 0.000000 
 0.860000 0.060000 0.000000 
 0.880000 0.060000 0.000000 
 0.900000 0.060000 0.000000 
 0.920000 0.060000 0.000000 
 0.940000 0.060000 0.000000 
 0.960000 0.060000 0.000000 
 0.980000 0.060000 0.000000 
 1.000000 0.060000 0.000000 
 0.000000 0.080000 0.000000 
 0.020000 0.080000 0.000000 
 0.040000 0.080000 0.000000 
 0.060000 0.080000 0.000000 
 0.080000 0.080000 0.000000 
 0.100000 0.080000 0.000000 
 0.120000 0.080000 0.000000 
 0.140000 0.080000 0.000000 
 0.160000 0.080000 0.000000 
 0.180000 0.080000 0.000000 
 0.200000 0.080000 0.000000 
 0.220000 0.080000 0.000000 
 0.240000 0.080000 0.000000 
 0.260000 0.080000 0.000000 
 0.280000 0.080000 0.000000 
 0.300000 0.080000 0.000000 
 0.320000 0.080000 0.000000 
 0.340000 0.080000 0.000000 
 0.360000 0.080000 0.000000 
 0.380000 0.080000 0.000000 
 0.400000 0.080000 0.000000 
 0.420000 0.080000 0.000000 
 0.440000 0.080000 0.000000 
 0.460000 0.080000 0.000000 
 0.480000 0.080000 0.000000 
 0.500000 0.080000 0.000000 
 0.520000 0.080000 0.000000 
 0.540000 0.080000 0.000000 
 0.560000 0.080000 0.000000 
 0.580000 0.080000 0.000000 
 0.600000 0.080000 0.000000 
 0.620000 0.080000 0.000000 
 0.640000 0.080000 0.000000 
 0.660000 0.080000 0.000000 
 0.680000 0.080000 0.000000 
 0.700000 0.080000 0.000000 
 0.720000 0.080000 0.000000 
 0.740000 0.080000 0.000000 
 0.760000 0.080000 0.000000 
 0.780000 0.080000 0.000000 
 0.800000 0.080000 0.000000 
 0.820000 0.080000 0.000000 
 0.840000 0.080000 0.000000 
 0.860000 0.080000 0.000000 
 0.880000 0.080000 0.000000 
 0.900000 0.080000 0.000000 
 0.920000 0.080000 0.000000 
 0.940000 0.080000 0.000000 
 0.960000 0.080000 0.000000 
 0.980000 0.080000 0.000000 
 1.000000 0.080000 0.000000 
 0.000000 0.100000 0.000000 
 0.020000 0.100000 0.000000 
 0.040000 0.100000 0.000000 
 0.060000 0.100000 0.000000 
 0.080000 0.100000 0.000000 
 0.100000 0.100000 0.000000 
 0.120000 0.100000 0.000000 
 0.140000 0.100000 0.000000 
 0.160000 0.100000 0.000000 
 0.180000 0.100000 0.000000 
 0.200000 0.100000 0.000000 
 0.220000 0.100000 0.000000 
 0.240000 0.100000 0.000000 
 0.260000 0.100000 0.000000 
 0.280000 0.100000 0.000000 
 0.300000 0.100000 0.000000 
 0.320000 0.100000 0.000000 
 0.340000 0.100000 0.000000 
 0.360000 0.100000 0.000000 
 0.380000 0.100000 0.000000 
 0.400000 0.100000 0.000000 
 0.420000 0.100000 0.000000 
 0.440000 0.100000 0.000000 
 0.460000 0.100000 0.000000 
 0.480000 0.100000 0.000000 
 0.500000 0.100000 0.000000 
 0.520000 0.100000 0.000000 
 0.540000 0.100000 0.000000 
 0.560000 0.100000 0.000000 
 0.580000 0.100000 0.000000 
 0.600000 0.100000 0.000000 
 0.620000 0.100000 0.000000 
 0.640000 0.100000 0.000000 
 0.660000 0.100000 0.000000 
 0.680000 0.100000 0.000000 
 0.700000 0.100000 0.000000 
 0.720000 0.100000 0.000000 
 0.740000 0.100000 0.000000 
 0.760000 0.100000 0.000000 
 0.780000 0.100000 0.000000 
 0.800000 0.100000 0.000000 
 0.820000 0.100000 0.000000 
 0.840000 0.100000 0.000000 
 0.860000 0.100000 0.000000 
 0.880000 0.100000 0.000000 
 0.900000 0.100000 0.000000 
 0.920000 0.100000 0.000000 
 0.940000 0.100000 0.000000 
 0.960000 0.100000 0.000000 
 0.980000 0.100000 0.000000 
 1.000000 0.100000 0.000000 
 0.000000 0.120000 0.000000 
 0.020000 0.120000 0.000000 
 0.040000 0.120000 0.000000 
 0.060000 0.120000 0.000000 
 0.080000 0.120000 0.000000 
 0.100000 0.120000 0.000000 
 0.120000 0.120000 0.000000 
 0.140000 0.120000 0.000000 
 0.160000 0.120000 0.000000 
 0.180000 0.120000 0.000000 
 0.200000 0.120000 0.000000 
 0.220000 0.120000 0.000000 
 0.240000 0.120000 0.000000 
 0.260000 0.120000 0.000000 
 0.280000 0.120000 0.000000 
 0.300000 0.120000 0.000000 
 0.320000 0.120000 0.000000 
 0.340000 0.120000 0.000000 
 0.360000 0.120000 0.000000 
 0.380000 0.120000 0.000000 
 0.400000 0.120000 0.000000 
 0.420000 0.120000 0.000000 
 0.440000 0.120000 0.000000 
 0.460000 0.120000 0.000000 
 0.480000 0.120000 0.000000 
 0.500000 0.120000 0.000000 
 0.520000 0.120000 0.000000 
 0.540000 0.120000 0.000000 
 0.560000 0.120000 0.000000 
 0.580000 0.120000 0.000000 
 0.600000 0.120000 0.000000 
[...]
<PointData  Scalars="U"> 
<DataArray  type="Float64"  Name="U"  format="ascii"> 
 0.000000e+00
 0.000000e+00
 0.000000e+00
 0.000000e+00
 0.000000e+00
 0.000000e+00
 0.000000e+00
 0.000000e+00
 0.000000e+00
 0.000000e+00
 0.000000e+00
 0.000000e+00
 0.000000e+00
 0.000000e+00
 0.000000e+00
 0.000000e+00
 0.000000e+00
 0.000000e+00
 0.000000e+00
 0.000000e+00
 0.000000e+00
 0.000000e+00
 0.000000e+00
 0.000000e+00
 0.000000e+00
 0.000000e+00
 0.000000e+00
 0.000000e+00
 0.000000e+00
 0.000000e+00
 0.000000e+00
 0.000000e+00
 0.000000e+00
 0.000000e+00
 0.000000e+00
 0.000000e+00
 0.000000e+00
 0.000000e+00
 0.000000e+00
 0.000000e+00
 0.000000e+00
 0.000000e+00
 0.000000e+00
 0.000000e+00
 0.000000e+00
 0.000000e+00
 0.000000e+00
 0.000000e+00
 0.000000e+00
 0.000000e+00
 0.000000e+00
 0.000000e+00
 1.736786e-05
 9.275709e-08
 5.630566e-07
 1.783868e-05
 3.429273e-05
 -1.211122e-06
 -9.391318e-07
 -5.925791e-07
 -6.078724e-07
 -1.630013e-06
 1.726546e-05
 1.940901e-05
 9.505590e-07
 4.139946e-07
 -1.330170e-06
 -3.548235e-05
 1.176880e-06
 -1.425029e-05
 -1.308061e-05
 3.432050e-06
 3.380647e-05
 -2.053203e-06
 1.487703e-05
 -7.133060e-07
 2.506606e-06
 3.727995e-06
 -8.022747e-07
 -4.290082e-06
 1.383013e-05
 -9.966699e-07
 -6.881617e-07
 -1.800932e-05
 -1.439059e-06
 -1.754682e-05
 1.256868e-06
 -1.675773e-05
 -9.373632e-07
 -5.764083e-07
 1.951169e-07
 -3.450769e-05
 1.818525e-05
 1.845605e-05
 -6.238638e-07
 -1.864708e-05
 -2.405909e-07
 -6.585519e-08
 1.485401e-07
 3.678163e-07
 2.301272e-07
 0.000000e+00
 0.000000e+00
 -1.131607e-07
 -8.945165e-07
 1.322702e-06
 2.639078e-06
 -2.028477e-06
 -4.347495e-06
 -2.385034e-06
 -1.013534e-06
 -5.772764e-08
 1.310696e-06
 5.843285e-07
 -1.954736e-06
 -2.449309e-06
 -1.936219e-05
 -1.947025e-05
 9.132383e-07
 4.283452e-06
 1.921123e-06
 -1.352555e-05
 6.341927e-06
 5.620379e-07
 1.369066e-05
 -1.945608e-05
 -5.929752e-07
 5.273044e-07
 -1.095399e-07
 -1.817991e-05
 -4.301292e-06
 -8.613268e-07
 -3.370438e-07
 -1.958453e-06
 -4.017454e-07
 2.212254e-07
 1.629357e-05
 1.896810e-06
 2.641416e-06
 1.938332e-06
 1.602786e-05
 -2.942292e-06
 8.133558e-07
 3.513672e-06
 -1.123163e-06
 -2.014562e-05
 -8.408256e-07
 6.917925e-07
 -2.197509e-07
 7.164344e-08
 1.696135e-06
 6.521379e-07
 0.000000e+00
 0.000000e+00
 -6.140022e-10
 8.644322e-08
 2.910682e-07
 -2.919307e-07
 -1.972921e-05
 7.749066e-09
 1.059904e-06
 1.588963e-05
 -2.034047e-06
 -2.109224e-06
 -1.805908e-05
 1.767420e-06
 -2.330791e-06
 -5.621299e-06
 6.407039e-07
 4.504903e-06
 1.601021e-06
 -1.571894e-05
 3.903800e-06
 3.014564e-06
 -1.672354e-05
 -1.614706e-06
 -3.732363e-06
 -4.312296e-08
 -1.676996e-05
 -6.199930e-08
 4.879467e-07
 9.264927e-07
 4.924433e-05
 -1.911079e-05
 -7.515403e-07
 9.950184e-07
 1.516642e-06
 -7.253277e-07
 1.582006e-05
 -1.774826e-05
 -1.562790e-05
 -1.790036e-05
 -2.649724e-06
 -7.448522e-08
 7.463060e-07
 -5.874236e-07
 -7.176593e-07
 -5.785814e-07
 -5.164351e-07
 -1.268890e-06
 -1.501296e-06
 1.071948e-06
 -1.610885e-05
 0.000000e+00
 0.000000e+00
 1.512830e-08
 9.526005e-08
 8.727376e-07
 -1.478264e-06
 -2.896277e-06
 1.777161e-05
 -1.655447e-05
 -1.821063e-05
 -2.417052e-06
 -2.156630e-06
 1.596221e-05
 -2.366496e-06
 -3.573776e-05
 1.064723e-06
 3.518156e-05
 1.519942e-07
 -1.895786e-05
 9.211541e-07
 -1.290052e-05
 -1.625308e-05
 4.122406e-07
 2.253091e-06
 -7.636800e-07
 1.417898e-05
 -1.714111e-07
 2.621229e-06
 1.665334e-06
 4.148873e-06
 8.632618e-08
 2.954661e-05
 -1.125163e-06
 1.679227e-05
 -1.752641e-05
 1.624058e-06
 -1.782177e-06
 -4.055304e-06
 -4.645287e-07
 -1.630605e-05
 1.845698e-07
 2.339399e-07
 1.178836e-06
 1.379588e-06
 6.435536e-08
 3.869637e-07
 1.706967e-05
 -2.477722e-06
 1.564991e-05
 1.721031e-05
 7.133974e-07
 0.000000e+00
 0.000000e+00
 -2.516308e-08
 -6.180906e-08
 -3.434237e-07
 -1.820318e-05
 -2.091094e-07
 1.597505e-05
 -2.650954e-06
 1.583898e-07
 2.732752e-07
 -4.343929e-07
 -1.485571e-06
 -3.708509e-06
 3.474539e-05
 4.189259e-06
 3.587578e-07
 -3.306329e-06
 -9.163763e-07
 1.749869e-05
 -1.752028e-08
 -1.535554e-05
 2.092652e-06
 8.906842e-07
 -1.643976e-05
 -3.796131e-07
 1.595308e-05
 1.456511e-06
 2.033101e-06
 4.877474e-07
 -1.561819e-05
 -1.819676e-05
 -1.890195e-06
 -1.812631e-06
 -2.652789e-06
 1.894025e-06
 -1.797654e-05
 -2.379747e-06
 -2.989540e-06
 1.319625e-06
 2.588947e-06
 1.737816e-05
 1.582711e-07
 1.213885e-07
 -1.737045e-05
 9.512828e-07
 -1.701643e-05
 -4.926173e-08
 1.804067e-05
 1.565656e-05
 -1.924936e-06
 0.000000e+00
 0.000000e+00
 -2.266594e-07
 4.948389e-07
 -2.834365e-07
 -1.110883e-06
 8.100634e-07
 3.927239e-07
 -2.242030e-06
 -1.487206e-06
 -6.499379e-07
 -9.747276e-07
 -8.751309e-07
 -4.902806e-07
 -1.316829e-07
 -9.119643e-07
 1.120867e-07
 4.974196e-07
 -3.295612e-07
 -2.017868e-06
 -1.382430e-06
 5.585760e-07
 1.237505e-06
 -1.117987e-07
 1.584202e-06
 2.058234e-06
 -2.076882e-06
 -1.777899e-06
 -1.810488e-05
 -1.801570e-05
 -7.508315e-07
 -1.704948e-05
 2.899509e-06
 -1.748646e-05
 -2.885192e-06
 -1.648033e-07
 -1.574543e-05
 1.185373e-07
 -1.658083e-06
 1.818296e-05
 -1.590805e-05
 2.708811e-07
 -9.002764e-07
 -6.647603e-07
 -1.092413e-06
 4.774438e-07
 1.240577e-06
 2.769065e-06
 2.292256e-06
 -1.719452e-06
 -2.784020e-06
 0.000000e+00
 0.000000e+00
 -5.766060e-07
 -2.376992e-06
 -1.902911e-05
 -1.757245e-05
 2.665320e-08
 -3.956935e-07
 -1.840168e-05
 5.101158e-07
 7.624161e-07
 -3.361234e-06
 -2.618886e-07
 3.513905e-07
 1.715218e-05
 3.862103e-07
 -3.857796e-07
 -5.944730e-07
 -1.763510e-05
 -4.068076e-06
 -1.162858e-06
 -1.599834e-05
 1.254451e-06
 3.776675e-08
 -1.643954e-06
 -1.598236e-05
 7.139117e-07
 1.557850e-05
 -8.377630e-07
 1.810609e-05
 9.895945e-07
 1.836138e-05
 1.794274e-05
 -1.809492e-05
 -2.226776e-07
 1.574993e-05
 -1.766408e-05
 -1.409184e-05
 -9.987300e-07
 -3.595921e-06
 -1.723851e-05
 4.019970e-06
 7.163657e-07
 1.885255e-06
 1.478121e-06
 1.617906e-05
 -8.230485e-07
 2.689921e-07
 1.698542e-07
 -1.790506e-05
 -5.469204e-07
 0.000000e+00
 0.000000e+00
 3.762825e-07
 -2.284151e-06
 1.317408e-05
 -1.113439e-06
 1.424121e-06
 -5.328465e-07
 -2.178770e-06
 -8.473866e-07
 -1.566486e-05
 -1.644534e-05
 3.347675e-05
 -1.652786e-05
 1.923592e-05
 -1.726972e-06
 -5.019823e-07
 -1.514776e-06
 -8.503869e-07
 -1.963016e-05
 3.048481e-05
 -1.664492e-05
 2.005645e-06
 -1.700980e-05
 -6.942833e-07
 1.740299e-05
 -1.508495e-05
 -6.423375e-07
 3.464655e-07
 4.142622e-06
 1.884936e-05
 -8.828910e-07
 -1.103633e-06
 -2.308985e-06
 -8.409765e-07
 -1.875326e-06
 -2.488863e-06
 7.780446e-07
 -3.504608e-05
 1.684688e-05
 1.852341e-05
 2.771573e-06
 -1.823027e-05
 -1.490786e-07
 -3.259452e-05
 -1.677737e-05
 -1.393105e-06
 -6.121868e-07
 -1.107956e-06
 -3.999354e-07
 9.843257e-07
 0.000000e+00
 0.000000e+00
 -8.003955e-07
 -1.795275e-05
 -1.492755e-06
 1.539493e-05
 1.687703e-05
 -8.072975e-07
 -1.328378e-06
 1.405864e-05
 1.595276e-05
 -1.302791e-05
 1.448889e-06
 1.688424e-05
 4.771017e-07
 -2.123453e-05
 -8.254503e-07
 -1.745161e-05
 -1.355351e-06
 -1.768535e-05
 1.352613e-05
 1.309531e-05
 -1.819917e-05
 -1.290739e-06
 -1.600754e-05
 7.162128e-07
 8.455145e-07
 1.375022e-06
 1.840475e-05
 2.600606e-06
 -3.614757e-05
 -1.865453e-05
 -2.529251e-07
 -3.667636e-05
 -9.499238e-07
 2.961451e-07
 4.652027e-07
 -1.880192e-06
 -5.469489e-07
 2.182937e-05
 -1.121402e-06
 -2.652787e-06
 -1.856626e-05
 1.721834e-05
 1.941663e-06
 4.353657e-06
 -1.578767e-07
 -1.015197e-06
 -1.102692e-07
 -1.364363e-06
 6.084042e-08
 0.000000e+00
 0.000000e+00
 -1.662752e-06
 -1.002306e-07
 -5.657208e-07
 1.072109e-07
 -1.146067e-06
 -2.049721e-06
 5.570907e-07
 -2.156250e-06
 1.197630e-05
 -3.364411e-06
 -1.488072e-05
 1.339295e-06
 -2.043014e-05
 -5.310950e-07
 1.826470e-05
 9.575432e-07
 7.520461e-09
 -5.002966e-07
 1.563567e-07
 3.059343e-05
 -4.509231e-06
 1.687395e-05
 1.808668e-05
 1.781062e-05
 9.771228e-07
 4.572048e-06
 1.770857e-05
 -4.766625e-06
 -1.975834e-05
 1.890713e-05
 -1.673957e-05
 -5.773642e-07
 6.803639e-07
 -1.406808e-06
 -1.719354e-05
 -1.479274e-05
 1.843763e-06
 1.674140e-05
 -1.641341e-05
 1.689912e-05
 -2.009330e-07
 1.794920e-05
 -1.809646e-06
 -1.669415e-05
 -1.537867e-05
 1.799275e-05
 -1.707219e-06
 -7.373690e-08
 1.830266e-05
 0.000000e+00
 0.000000e+00
 1.696872e-05
 -1.790799e-05
 -9.899910e-07
 1.822112e-05
 1.328665e-07
 -1.832975e-06
 -1.258950e-06
 -1.727002e-05
 1.622155e-05
 1.415063e-05
 3.371538e-05
 -1.511344e-06
 1.729726e-06
 2.019868e-05
 -8.647698e-07
 -3.302134e-07
 -1.809845e-05
 -6.286242e-08
 4.257658e-07
 -2.566726e-06
 -3.586948e-06
 1.701917e-05
 -1.950944e-06
 -1.615404e-06
 1.650034e-05
 -6.808133e-07
 -3.432924e-05
 -1.313872e-06
 -3.541634e-06
 -6.041527e-07
 1.111064e-06
 -1.810804e-05
 -1.414381e-06
 -3.438921e-07
 1.750662e-05
 2.634811e-06
 -1.406581e-05
 -5.234815e-08
 1.756608e-05
 -3.523320e-05
 -1.061392e-06
 -1.840036e-05
 -2.226231e-06
 8.682973e-08
 1.717490e-06
 -1.409814e-05
 5.358828e-07
 1.812148e-05
 4.619040e-07
 0.000000e+00
 0.000000e+00
 1.502449e-05
 -2.150708e-05
 7.251116e-07
 -1.897961e-07
 -2.083201e-05
 -1.868399e-05
 -2.993431e-07
 2.258608e-06
 2.105689e-06
 -1.157257e-06
 -2.849673e-06
 -4.645553e-06
 1.521158e-05
 -3.377657e-05
 1.364911e-06
 -2.708962e-07
 -1.896844e-05
 -5.726569e-07
 -1.830347e-05
 -1.231680e-06
 -1.813781e-06
 3.409526e-07
 -5.882699e-07
 1.684688e-05
 -1.777872e-06
 -5.168235e-06
 1.650960e-05
 -1.594922e-05
 -1.805708e-05
 3.574314e-05
 -5.735433e-07
 -1.941706e-05
 1.566294e-05
 -1.185427e-07
 1.538158e-06
 -9.164484e-08
 2.282136e-06
 1.660044e-06
 -4.699665e-06
 -1.755114e-05
 2.073927e-05
 -3.107572e-07
 1.836084e-05
 -8.624682e-08
 -2.794018e-07
 1.848163e-05
 -1.534195e-05
 1.420314e-06
 1.320675e-07
 0.000000e+00
 0.000000e+00
 -4.658984e-06
 -3.979508e-06
 1.725688e-05
 -1.778092e-06
 -2.206873e-06
 1.754089e-05
 -3.196522e-07
 9.116572e-08
 -1.631409e-05
 2.733949e-07
 1.785034e-07
 -3.937109e-06
 -7.021842e-06
 1.517173e-05
 -1.382873e-05
 -1.611145e-05
 -1.811187e-05
 -1.315515e-06
 -1.067415e-06
 1.596184e-07
 -1.974225e-06
 1.575326e-05
 -1.631700e-05
 1.398035e-06
 -3.460748e-06
 -1.865533e-06
 1.668343e-05
 -8.947815e-07
 2.222768e-05
 2.108461e-05
 -4.000205e-06
 -9.104451e-08
 1.840100e-05
 3.283108e-05
 1.688273e-05
 -1.075492e-06
 4.917721e-07
 -1.867503e-05
 -1.211530e-06
 3.644682e-05
 -1.616219e-05
 -1.860026e-07
 1.179681e-06
 -1.009407e-06
 -1.979980e-07
 -1.060169e-06
 1.529303e-06
 2.149601e-05
 -8.458587e-08
 0.000000e+00
 0.000000e+00
 -1.857836e-05
 -7.057638e-07
 -8.016054e-07
 -7.900532e-07
 -2.600640e-06
 -4.608718e-07
 -4.314037e-07
 1.455465e-05
 -2.696891e-07
 9.266497e-07
 1.113008e-06
 -1.661892e-05
 3.188081e-05
 3.129613e-05
 1.580136e-05
 4.371159e-07
 -1.666257e-05
 -4.324206e-07
 -1.638353e-06
 -5.539995e-07
 9.058700e-08
 1.603483e-05
 1.587168e-05
 6.984775e-07
 -1.911527e-05
 1.635046e-05
 2.865899e-07
 6.253560e-07
 1.516293e-06
 -1.962856e-05
 -3.689503e-05
 1.698417e-06
 -1.507720e-05
 -1.612532e-06
 -3.046191e-06
 -6.795701e-07
 1.880290e-05
 1.941912e-06
 3.608519e-05
 -2.743983e-06
 -3.346422e-06
 -5.858909e-07
 -1.237755e-07
 -1.692344e-05
 -7.004351e-07
 1.765747e-06
 1.963699e-05
 -1.750517e-05
 -1.844646e-05
 0.000000e+00
 0.000000e+00
 6.486356e-07
 -3.898336e-07
 -6.979257e-07
 1.529446e-06
 -1.721624e-05
 3.339113e-05
 -1.690788e-05
 -4.495470e-07
 1.637249e-05
 8.657229e-07
 1.619967e-05
 -1.685215e-05
 -1.555293e-05
 1.482395e-05
 -5.885200e-06
 -2.260088e-05
 -1.847107e-05
 -1.691065e-05
 -1.556378e-06
 -2.596590e-07
 1.092530e-07
 -8.049143e-07
 -2.263833e-06
 -1.522625e-06
 1.150497e-06
 1.823004e-05
 1.582608e-05
 -1.012538e-06
 6.876908e-07
 -1.166743e-06
 1.619040e-05
 1.065672e-06
 3.200883e-06
 1.232536e-06
 1.633716e-05
 -1.231055e-07
 2.797833e-06
 -1.477621e-05
 -1.898719e-05
 -5.621946e-06
 -1.939969e-06
 -1.725005e-07
 1.635279e-05
 -3.668247e-07
 1.331739e-06
 1.869019e-05
 -1.778110e-05
 -1.754645e-06
 8.387970e-07
 0.000000e+00
 0.000000e+00
 -1.566099e-06
 -1.835104e-05
 1.874042e-05
 4.079834e-07
 -1.906429e-05
 -1.983785e-05
 -7.230416e-07
 -1.539550e-05
 -1.228496e-06
 -1.747454e-05
 -1.723080e-05
 -1.922804e-06
 2.107154e-06
 -8.187825e-07
 -2.446730e-05
 -3.680314e-06
 2.042068e-06
 -5.089215e-08
 9.222825e-07
 1.812193e-05
 -7.175712e-07
 1.868186e-05
 1.757522e-05
 1.649738e-05
 5.246210e-08
 -2.814923e-07
 -3.805169e-06
 8.648394e-07
 1.890234e-05
 -1.689854e-05
 -7.624343e-07
 1.717092e-05
 1.850562e-05
 -1.614563e-05
 1.714897e-05
 -2.334533e-06
 1.598198e-05
 -3.584672e-05
 -1.518434e-05
 1.560875e-06
 1.511438e-05
 7.422327e-07
 -8.708616e-07
 -2.541178e-06
 -1.877307e-07
 -4.071520e-07
 -4.152858e-07
 8.956429e-07
 5.800556e-09
 0.000000e+00
 0.000000e+00
 1.660345e-05
 1.679701e-05
 1.626584e-05
 -2.112776e-05
 -2.050326e-05
 1.768553e-05
 1.771312e-05
 -1.820882e-05
 -1.814827e-06
 -2.694450e-06
 -1.576277e-05
 -1.426000e-05
 -6.353018e-08
 -1.896984e-05
 -2.183177e-06
 1.600403e-05
 -9.785231e-07
 -3.626131e-05
 1.831853e-05
 -1.662215e-05
 -3.557810e-06
 7.476955e-07
 -1.618536e-05
 3.306938e-07
 -3.496728e-06
 -3.967486e-06
 5.175913e-07
 3.543854e-05
 -3.699393e-05
 -1.945510e-08
 -1.316978e-05
 1.836652e-05
 -2.067132e-05
 -1.438468e-06
 -1.774065e-05
 1.176337e-06
 -3.155071e-06
 -3.316755e-06
 2.424683e-06
 -1.574516e-05
 -1.786508e-05
 1.800170e-05
 -1.582732e-05
 1.521428e-05
 -1.169549e-06
 1.801897e-05
 5.129192e-08
 -1.283123e-07
 -1.930311e-07
 0.000000e+00
 0.000000e+00
 -2.827907e-06
 -2.002538e-05
 -3.877785e-06
 -3.842321e-06
 6.669190e-07
 1.973201e-05
 -3.918433e-06
 -2.077227e-06
 -3.419219e-07
 1.521214e-05
 1.677223e-05
 1.081834e-06
 -1.851277e-05
 -1.069073e-06
 -1.698557e-05
 -4.207047e-07
 -2.290971e-06
 -6.052116e-08
 1.768614e-05
 4.602293e-07
 2.127940e-06
 5.026947e-05
 1.635665e-06
 2.052024e-05
 -1.782492e-05
 3.313297e-05
 3.523857e-05
 -1.648969e-06
 1.414365e-05
 1.811052e-05
 6.342583e-07
 -1.632076e-05
 -2.416633e-06
 -2.699025e-06
 -4.808289e-07
 1.990891e-05
 -3.583802e-05
 1.649009e-05
 -2.094665e-05
 -4.389430e-07
 4.220517e-06
 1.863517e-05
 -1.783665e-05
 -1.641650e-05
 1.699902e-05
 -3.764446e-08
 2.355824e-07
 -1.102152e-06
 -9.993497e-07
 0.000000e+00
 0.000000e+00
 -4.414634e-06
 -2.008889e-06
 3.747997e-07
 -1.474491e-06
 -5.646841e-07
 -1.985547e-07
 -1.978008e-05
 1.500187e-05
 -1.529356e-05
 1.829018e-05
 -3.490271e-06
 -7.214595e-07
 3.412140e-07
 1.586752e-05
 -9.067100e-07
 2.070558e-05
 9.220153e-07
 -7.834673e-07
 -2.040692e-06
 1.567952e-05
 -1.316790e-05
 -1.595562e-06
 1.413760e-05
 -1.340398e-05
 2.999498e-06
 1.251874e-06
 1.384679e-05
 -3.011802e-06
 -8.568267e-08
 -2.895316e-06
 -4.159458e-06
 -1.441968e-06
 -1.731677e-05
 -1.620565e-06
 1.807421e-05
 -2.907684e-06
 -1.846618e-05
 1.676672e-06
 -1.896930e-05
 3.792613e-05
 2.144820e-06
 -6.761830e-07
 -3.086628e-06
 1.674898e-06
 8.807145e-07
 -2.122512e-06
 1.960420e-06
 -1.621082e-05
 1.704989e-05
 0.000000e+00
 0.000000e+00
 -1.467961e-06
 -1.381602e-06
 -1.050223e-06
 -1.944249e-05
 -4.966226e-07
 7.701109e-07
 8.142648e-07
 -1.656407e-06
 1.454593e-05
 -3.316721e-05
 -1.550313e-06
 -3.261428e-06
 -3.399041e-05
 -1.799862e-05
 -4.613571e-07
 -9.838545e-07
 -3.642682e-05
 -1.574522e-05
 1.393306e-06
 1.696300e-05
 1.769118e-05
 -1.749645e-05
 3.249644e-05
 4.284604e-07
 -3.173007e-05
 -1.643000e-05
 1.568594e-07
 -9.934902e-07
 -1.749725e-06
 -1.979562e-05
 -2.213537e-06
 -3.183703e-06
 -8.732872e-08
 2.300759e-06
 1.580345e-05
 -2.203721e-05
 1.577612e-05
 -1.684701e-05
 2.378239e-06
 1.439030e-06
 -1.799857e-05
 3.540239e-06
 -1.010003e-06
 1.640031e-05
 9.006827e-07
 1.619310e-05
 1.676143e-05
 -1.549961e-05
 1.818375e-06
 0.000000e+00
 0.000000e+00
 -1.962615e-06
 -4.815940e-07
 -7.615900e-07
 -5.292883e-07
 1.797088e-05
 -9.987133e-07
 -1.870539e-05
 -1.919890e-05
 -2.335114e-06
 1.746786e-05
 -1.640656e-05
 -3.240950e-06
 1.650625e-05
 -1.489625e-05
 1.800883e-05
 -2.088259e-05
 1.722621e-05
 5.914077e-06
 2.766414e-06
 1.152916e-07
 -1.981643e-06
 -1.931030e-05
 1.562261e-05
 -4.863636e-06
 -1.918551e-05
 -1.466873e-05
 1.199558e-06
 -1.759227e-05
 -1.687605e-05
 3.416163e-07
 -3.900536e-07
 -9.930728e-07
 1.880252e-05
 2.397811e-06
 -4.518233e-06
 -6.245420e-06
 -1.373213e-06
 -4.400038e-07
 2.637646e-06
 1.193844e-06
 1.980220e-05
 2.212929e-06
 -3.400163e-05
 1.851248e-05
 5.680868e-07
 4.465988e-07
 1.484142e-05
 -1.993409e-07
 1.644144e-06
 0.000000e+00
 0.000000e+00
 1.664364e-05
 1.585296e-05
 -7.459422e-07
 1.341872e-07
 1.030774e-07
 -3.524751e-06
 -3.105029e-06
 2.566766e-07
 1.852785e-05
 -1.672961e-06
 -1.950550e-05
 -2.140564e-07
 3.971026e-07
 2.687707e-06
 -1.520321e-06
 -2.486526e-06
 1.953139e-05
 2.028856e-06
 -1.382136e-05
 1.767639e-05
 -2.987289e-06
 3.553358e-07
 1.726083e-05
 1.266499e-05
 -2.588827e-06
 1.919816e-05
 8.251779e-07
 1.733236e-05
 4.394580e-07
 -1.732061e-05
 -1.794785e-05
 2.416918e-06
 6.378763e-07
 -1.997143e-05
 -3.651891e-05
 1.426219e-05
 1.303013e-05
 -1.325549e-06
 2.647948e-06
 2.199686e-06
 8.683626e-07
 -1.874129e-05
 8.340622e-07
 4.070260e-06
 2.210194e-06
 5.848887e-07
 -3.023647e-06
 -2.056893e-06
 -1.692586e-05
 0.000000e+00
 0.000000e+00
 -1.826363e-05
 -1.652439e-06
 -1.174332e-06
 -9.604167e-07
 -1.487598e-06
 -1.948756e-05
 -2.653312e-06
 2.583900e-07
 3.980946e-07
 -2.890480e-06
 -1.181224e-06
 6.194151e-07
 1.705348e-05
 -1.784034e-05
 -3.487519e-05
 1.737346e-05
 2.352121e-07
 2.078079e-07
 -1.697835e-05
 -3.630438e-05
 -1.912093e-05
 1.370318e-06
 -1.691420e-05
 -2.228156e-06
 -2.377264e-06
 -3.717522e-06
 -1.757404e-05
 1.857968e-06
 -2.139032e-05
 -1.132987e-06
 2.943289e-06
 2.056253e-05
 -1.872199e-05
 -2.647164e-06
 2.030748e-06
 3.903361e-06
 1.409463e-05
 3.075245e-05
 1.833452e-05
 4.067439e-06
 1.727566e-05
 -1.418634e-06
 2.111147e-06
 2.028717e-05
 2.018606e-06
 -1.817640e-05
 -1.557314e-06
 1.687448e-05
 -4.686542e-07
 0.000000e+00
 0.000000e+00
 2.936440e-08
 1.879218e-05
 1.954342e-07
 -1.445836e-06
 -2.866592e-06
 -1.236242e-06
 -1.608475e-06
 1.804211e-05
 5.125021e-07
 -1.796981e-06
 -1.165506e-06
 1.611482e-07
 -1.448524e-06
 -4.309114e-06
 1.870716e-06
 4.570059e-06
 1.614663e-05
 -1.611962e-06
 -1.989553e-05
 -1.739665e-06
 1.960010e-05
 4.076700e-07
 4.545500e-07
 1.691210e-06
 5.137769e-08
 -4.667131e-06
 3.237629e-05
 -1.787854e-05
 -1.760608e-05
 1.999362e-05
 3.050822e-06
 6.457930e-07
 -2.112620e-05
 1.094059e-06
 3.005049e-06
 1.760809e-06
 -1.754256e-05
 1.578824e-05
 1.351277e-05
 1.105655e-06
 -3.550904e-05
 -1.083426e-06
 2.185572e-06
 4.246988e-07
 -1.898524e-05
 -1.771729e-05
 1.288440e-06
 -6.418225e-07
 -1.911722e-05
 0.000000e+00
 0.000000e+00
 1.761610e-05
 -1.172198e-06
 -2.768476e-06
 -1.925375e-05
 -1.111679e-06
 1.619845e-07
 3.230342e-06
 3.236609e-05
 -2.124691e-05
 -2.358685e-07
 -2.958837e-06
 -1.996112e-07
 7.531138e-07
 -1.184460e-06
 1.696342e-05
 5.022932e-07
 -1.949468e-05
 -3.278902e-06
 -1.788809e-05
 1.837062e-06
 1.907840e-05
 -1.902877e-06
 1.785508e-05
 5.259832e-07
 4.556313e-08
 -1.732226e-05
 3.184495e-05
 -4.360080e-06
 1.880963e-05
 1.709348e-06
 4.252825e-07
 -1.865437e-05
 -1.872855e-05
 1.772447e-05
 -1.635702e-05
 -1.549406e-05
 3.294001e-06
 1.856959e-05
 -5.293950e-06
 1.296133e-05
 -3.499977e-05
 1.918328e-05
 -1.632026e-05
 1.797640e-06
 3.772297e-07
 1.405016e-07
 2.464618e-07
 -1.056587e-06
 -5.134179e-07
 0.000000e+00
 0.000000e+00
 -1.002766e-06
 -3.721203e-06
 -3.173715e-06
 -2.877738e-06
 2.514365e-07
 9.872550e-07
 3.317950e-06
 -3.430316e-05
 3.137703e-05
 -4.592833e-07
 -1.259997e-06
 3.686232e-05
 -2.224940e-07
 -2.098384e-06
 -1.625036e-06
 -2.981542e-06
 -7.548762e-08
 1.695182e-05
 -1.082000e-06
 8.154636e-07
 3.875529e-07
 -1.760273e-05
 1.754655e-05
 -1.889127e-05
 -2.001829e-06
 -1.556795e-05
 -1.595260e-07
 -2.958392e-06
 -1.082900e-06
 -1.771886e-06
 -1.458011e-09
 -1.977924e-05
 2.236281e-06
 1.914348e-06
 1.618302e-05
 3.249682e-06
 4.016839e-06
 -1.895128e-05
 -3.776680e-06
 1.444371e-05
 -1.856372e-06
 3.088519e-06
 1.777180e-05
 1.578625e-06
 -1.759386e-05