<VTKFile type="UnstructuredGrid"  version="0.1"   >
<UnstructuredGrid>  
<Piece  NumberOfPoints="     2601"  NumberOfCells="     5000">  
<Points>  
<DataArray  type="Float64"  NumberOfComponents="3"  format="ascii">  
 0.000000 0.000000 0.000000 
 0.020000 0.000000 0.000000 
 0.040000 0.000000 0.000000 
 0.060000 0.000000 0.000000 
 0.080000 0.000000 0.000000 
 0.100000 0.000000 0.000000 
 0.120000 0.000000 0.000000 
 0.140000 0.000000 0.000000 
 0.160000 0.000000 0.000000 
 0.180000 0.000000 0.000000 
 0.200000 0.000000 0.000000 
 0.220000 0.000000 0.000000 
 0.240000 0.000000 0.000000 
 0.260000 0.000000 0.000000 
 0.280000 0.000000 0.000000 
 0.300000 0.000000 0.000000 
 0.320000 0.000000 0.000000 
 0.340000 0.000000 0.000000 
 0.360000 0.000000 0.000000 
 0.380000 0.000000 0.000000 
 0.400000 0.000000 0.000000 
 0.420000 0.000000 0.000000 
 0.440000 0.000000 0.000000 
 0.460000 0.000000 0.000000 
 0.480000 0.000000 0.000000 
 0.500000 0.000000 0.000000 
 0.520000 0.000000 0.000000 
 0.540000 0.000000 0.000000 
 0.560000 0.000000 0.000000 
 0.580000 0.000000 0.000000 
 0.600000 0.000000 0.000000 
 0.620000 0.000000 0.000000 
 0.640000 0.000000 0.000000 
 0.660000 0.000000 0.000000 
 0.680000 0.000000 0.000000 
 0.700000 0.000000 0.000000 
 0.720000 0.000000 0.000000 
 0.740000 0.000000 0.000000 
 0.760000 0.000000 0.000000 
 0.780000 0.000000 0.000000 
 0.800000 0.000000 0.000000 
 0.820000 0.000000 0.000000 
 0.840000 0.000000 0.000000 
 0.860000 0.000000 0.000000 
 0.880000 0.000000 0.000000 
 0.900000 0.000000 0.000000 
 0.920000 0.000000 0.000000 
 0.940000 0.000000 0.000000 
 0.960000 0.000000 0.000000 
 0.980000 0.000000 0.000000 
 1.000000 0.000000 0.000000 
 0.000000 0.020000 0.000000 
 0.020000 0.020000 0.000000 
 0.040000 0.020000 0.000000 
 0.060000 0.020000 0.000000 
 0.080000 0.020000 0.000000 
 0.100000 0.020000 0.000000 
 0.120000 0.020000 0.000000 
 0.140000 0.020000 0.000000 
 0.160000 0.020000 0.000000 
 0.180000 0.020000 0.000000 
 0.200000 0.020000 0.000000 
 0.220000 0.020000 0.000000 
 0.240000 0.020000 0.000000 
 0.260000 0.020000 0.000000 
 0.280000 0.020000 0.000000 
 0.300000 0.020000 0.000000 
 0.320000 0.020000 0.000000 
 0.340000 0.020000 0.000000 
 0.360000 0.020000 0.000000 
 0.380000 0.020000 0.000000 
 0.400000 0.020000 0.000000 
 0.420000 0.020000 0.000000 
 0.440000 0.020000 0.000000 
 0.460000 0.020000 0.000000 
 0.480000 0.020000 0.000000 
 0.500000 0.020000 0.000000 
 0.520000 0.020000 0.000000 
 0.540000 0.020000 0.000000 
 0.560000 0.020000 0.000000 
 0.580000 0.020000 0.000000 
 0.600000 0.020000 0.000000 
 0.620000 0.020000 0.000000 
 0.640000 0.020000 0.000000 
 0.660000 0.020000 0.000000 
 0.680000 0.020000 0.000000 
 0.700000 0.020000 0.000000 
 0.720000 0.020000 0.000000 
 0.740000 0.020000 0.000000 
 0.760000 0.020000 0.000000 
 0.780000 0.020000 0.000000 
 0.800000 0.020000 0.000000 
 0.820000 0.020000 0.000000 
 0.840000 0.020000 0.000000 
 0.860000 0.020000 0.000000 
 0.880000 0.020000 0.000000 
 0.900000 0.020000 0.000000 
 0.920000 0.020000 0.000000 
 0.940000 0.020000 0.000000 
 0.960000 0.020000 0.000000 
 0.980000 0.020000 0.000000 
 1.000000 0.020000 0.000000 
 0.000000 0.040000 0.000000 
 0.020000 0.040000 0.000000 
 0.040000 0.040000 0.000000 
 0.060000 0.040000 0.000000 
 0.080000 0.040000 0.000000 
 0.100000 0.040000 0.000000 
 0.120000 0.040000 0.000000 
 0.140000 0.040000 0.000000 
 0.160000 0.040000 0.000000 
 0.180000 0.040000 0.000000 
 0.200000 0.040000 0.000000 
 0.220000 0.040000 0.000000 
 0.240000 0.040000 0.000000 
 0.260000 0.040000 0.000000 
 0.280000 0.040000 0.000000 
 0.300000 0.040000 0.000000 
 0.320000 0.040000 0.000000 
 0.340000 0.040000 0.000000 
 0.360000 0.040000 0.000000 
 0.380000 0.040000 0.000000 
 0.400000 0.040000 0.000000 
 0.420000 0.040000 0.000000 
 0.440000 0.040000 0.000000 
 0.460000 0.040000 0.000000 
 0.480000 0.040000 0.000000 
 0.500000 0.040000 0.000000 
 0.520000 0.040000 0.000000 
 0.540000 0.040000 0.000000 
 0.560000 0.040000 0.000000 
 0.580000 0.040000 0.000000 
 0.600000 0.040000 0.000000 
 0.620000 0.040000 0.000000 
 0.640000 0.040000 0.000000 
 0.660000 0.040000 0.000000 
 0.680000 0.040000 0.000000 
 0.700000 0.040000 0.000000 
 0.720000 0.040000 0.000000 
 0.740000 0.040000 0.000000 
 0.760000 0.040000 0.000000 
 0.780000 0.040000 0.000000 
 0.800000 0.040000 0.000000 
 0.820000 0.040000 0.000000 
 0.840000 0.040000 0.000000 
 0.860000 0.040000 0.000000 
 0.880000 0.040000 0.000000 
 0.900000 0.040000 0.000000 
 0.920000 0.040000 0.000000 
 0.940000 0.040000 0.000000 
 0.960000 0.040000 0.000000 
 0.980000 0.040000 0.000000 
 1.000000 0.040000 0.000000 
 0.000000 0.060000 0.000000 
 0.020000 0.060000 0.000000 
 0.040000 0.060000 0.000000 
 0.060000 0.060000 0.000000 
 0.080000 0.060000 0.000000 
 0.100000 0.060000 0.000000 
 0.120000 0.060000 0.000000 
 0.140000 0.060000 0.000000 
 0.160000 0.060000 0.000000 
 0.180000 0.060000 0.000000 
 0.200000 0.060000 0.000000 
 0.220000 0.060000 0.000000 
 0.240000 0.060000 0.000000 
 0.260000 0.060000 0.000000 
 0.280000 0.060000 0.000000 
 0.300000 0.060000 0.000000 
 0.320000 0.060000 0.000000 
 0.340000 0.060000 0.000000 
 0.360000 0.060000 0.000000 
 0.380000 0.060000 0.000000 
 0.400000 0.060000 0.000000 
 0.420000 0.060000 0.000000 
 0.440000 0.060000 0.000000 
 0.460000 0.060000 0.000000 
 0.480000 0.060000 0.000000 
 0.500000 0.060000 0.000000 
 0.520000 0.060000 0.000000 
 0.540000 0.060000 0.000000 
 0.560000 0.060000 0.000000 
 0.580000 0.060000 0.000000 
 0.600000 0.060000 0.000000 
 0.620000 0.060000 0.000000 
 0.640000 0.060000 0.000000 
 0.660000 0.060000 0.000000 
 0.680000 0.060000 0.000000 
 0.700000 0.060000 0.000000 
 0.720000 0.060000 0.000000 
 0.740000 0.060000 0.000000 
 0.760000 0.060000 0.000000 
 0.780000 0.060000 0.000000 
 0.800000 0.060000 0.000000 
 0.820000 0.060000 0.000000 
 0.840000 0.060000 0.000000 
 0.860000 0.060000 0.000000 
 0.880000 0.060000 0.000000 
 0.900000 0.060000 0.000000 
 0.920000 0.060000 0.000000 
 0.940000 0.060000 0.000000 
 0.960000 0.060000 0.000000 
 0.980000 0.060000 0.000000 
 1.000000 0.060000 0.000000 
 0.000000 0.080000 0.000000 
 0.020000 0.080000 0.000000 
 0.040000 0.080000 0.000000 
 0.060000 0.080000 0.000000 
 0.080000 0.080000 0.000000 
 0.100000 0.080000 0.000000 
 0.120000 0.080000 0.000000 
 0.140000 0.080000 0.000000 
 0.160000 0.080000 0.000000 
 0.180000 0.080000 0.000000 
 0.200000 0.080000 0.000000 
 0.220000 0.080000 0.000000 
 0.240000 0.080000 0.000000 
 0.260000 0.080000 0.000000 
 0.280000 0.080000 0.000000 
 0.300000 0.080000 0.000000 
 0.320000 0.080000 0.000000 
 0.340000 0.080000 0.000000 
 0.360000 0.080000 0.000000 
 0.380000 0.080000 0.000000 
 0.400000 0.080000 0.000000 
 0.420000 0.080000 0.000000 
 0.440000 0.080000 0.000000 
 0.460000 0.080000 0.000000 
 0.480000 0.080000 0.000000 
 0.500000 0.080000 0.000000 
 0.520000 0.080000 0.000000 
 0.540000 0.080000 0.000000 
 0.560000 0.080000 0.000000 
 0.580000 0.080000 0.000000 
 0.600000 0.080000 0.000000 
 0.620000 0.080000 0.000000 
 0.640000 0.080000 0.000000 
 0.660000 0.080000 0.000000 
 0.680000 0.080000 0.000000 
 0.700000 0.080000 0.000000 
 0.720000 0.080000 0.000000 
 0.740000 0.080000 0.000000 
 0.760000 0.080000 0.000000 
 0.780000 0.080000 0.000000 
 0.800000 0.080000 0.000000 
 0.820000 0.080000 0.000000 
 0.840000 0.080000 0.000000 
 0.860000 0.080000 0.000000 
 0.880000 0.080000 0.000000 
 0.900000 0.080000 0.000000 
 0.920000 0.080000 0.000000 
 0.940000 0.080000 0.000000 
 0.960000 0.080000 0.000000 
 0.980000 0.080000 0.000000 
 1.000000 0.080000 0.000000 
 0.000000 0.100000 0.000000 
 0.020000 0.100000 0.000000 
 0.040000 0.100000 0.000000 
 0.060000 0.100000 0.000000 
 0.080000 0.100000 0.000000 
 0.100000 0.100000 0.000000 
 0.120000 0.100000 0.000000 
 0.140000 0.100000 0.000000 
 0.160000 0.100000 0.000000 
 0.180000 0.100000 0.000000 
 0.200000 0.100000 0.000000 
 0.220000 0.100000 0.000000 
 0.240000 0.100000 0.000000 
 0.260000 0.100000 0.000000 
 0.280000 0.100000 0.000000 
 0.300000 0.100000 0.000000 
 0.320000 0.100000 0.000000 
 0.340000 0.100000 0.000000 
 0.360000 0.100000 0.000000 
 0.380000 0.100000 0.000000 
 0.400000 0.100000 0.000000 
 0.420000 0.100000 0.000000 
 0.440000 0.100000 0.000000 
 0.460000 0.100000 0.000000 
 0.480000 0.100000 0.000000 
 0.500000 0.100000 0.000000 
 0.520000 0.100000 0.000000 
 0.540000 0.100000 0.000000 
 0.560000 0.100000 0.000000 
 0.580000 0.100000 0.000000 
 0.600000 0.100000 0.000000 
 0.620000 0.100000 0.000000 
 0.640000 0.100000 0.000000 
 0.660000 0.100000 0.000000 
 0.680000 0.100000 0.000000 
 0.700000 0.100000 0.000000 
 0.720000 0.100000 0.000000 
 0.740000 0.100000 0.000000 
 0.760000 0.100000 0.000000 
 0.780000 0.100000 0.000000 
 0.800000 0.100000 0.000000 
 0.820000 0.100000 0.000000 
 0.840000 0.100000 0.000000 
 0.860000 0.100000 0.000000 
 0.880000 0.100000 0.000000 
 0.900000 0.100000 0.000000 
 0.920000 0.100000 0.000000 
 0.940000 0.100000 0.000000 
 0.960000 0.100000 0.000000 
 0.980000 0.100000 0.000000 
 1.000000 0.100000 0.000000 
 0.000000 0.120000 0.000000 
 0.020000 0.120000 0.000000 
 0.040000 0.120000 0.000000 
 0.060000 0.120000 0.000000 
 0.080000 0.120000 0.000000 
 0.100000 0.120000 0.000000 
 0.120000 0.120000 0.000000 
 0.140000 0.120000 0.000000 
 0.160000 0.120000 0.000000 
 0.180000 0.120000 0.000000 
 0.200000 0.120000 0.000000 
 0.220000 0.120000 0.000000 
 0.240000 0.120000 0.000000 
 0.260000 0.120000 0.000000 
 0.280000 0.120000 0.000000 
 0.300000 0.120000 0.000000 
 0.320000 0.120000 0.000000 
 0.340000 0.120000 0.000000 
 0.360000 0.120000 0.000000 
 0.380000 0.120000 0.000000 
 0.400000 0.120000 0.000000 
 0.420000 0.120000 0.000000 
 0.440000 0.120000 0.000000 
 0.460000 0.120000 0.000000 
 0.480000 0.120000 0.000000 
 0.500000 0.120000 0.000000 
 0.520000 0.120000 0.000000 
 0.540000 0.120000 0.000000 
 0.560000 0.120000 0.000000 
 0.580000 0.120000 0.000000 
 0.600000 0.120000 0.000000 
[...]
<PointData  Scalars="U"> 
<DataArray  type="Float64"  Name="U"  format="ascii"> 
 0.000000e+00
 0.000000e+00
 0.000000e+00
 0.000000e+00
 0.000000e+00
 0.000000e+00
 0.000000e+00
 0.000000e+00
 0.000000e+00
 0.000000e+00
 0.000000e+00
 0.000000e+00
 0.000000e+00
 0.000000e+00
 0.000000e+00
 0.000000e+00
 0.000000e+00
 0.000000e+00
 0.000000e+00
 0.000000e+00
 0.000000e+00
 0.000000e+00
 0.000000e+00
 0.000000e+00
 0.000000e+00
 0.000000e+00
 0.000000e+00
 0.000000e+00
 0.000000e+00
 0.000000e+00
 0.000000e+00
 0.000000e+00
 0.000000e+00
 0.000000e+00
 0.000000e+00
 0.000000e+00
 0.000000e+00
 0.000000e+00
 0.000000e+00
 0.000000e+00
 0.000000e+00
 0.000000e+00
 0.000000e+00
 0.000000e+00
 0.000000e+00
 0.000000e+00
 0.000000e+00
 0.000000e+00
 0.000000e+00
 0.000000e+00
 0.000000e+00
 0.000000e+00
 5.862119e-10
 1.061548e-09
 1.320462e-09
 1.264436e-09
 7.981416e-10
 -1.786932e-10
 -1.777390e-09
 -4.109836e-09
 -7.233382e-09
 -1.100926e-08
 -1.485113e-08
 -1.747919e-08
 -1.711013e-08
 -1.260861e-08
 -5.082575e-09
 2.153965e-09
 6.086726e-09
 6.294769e-09
 4.674642e-09
 3.636096e-09
 4.579537e-09
 7.298701e-09
 1.039878e-08
 1.243540e-08
 1.287321e-08
 1.217456e-08
 1.125533e-08
 1.092630e-08
 1.160782e-08
 1.325300e-08
 1.535683e-08
 1.705003e-08
 1.739630e-08
 1.592692e-08
 1.304855e-08
 9.685353e-09
 6.155841e-09
 1.494074e-09
 -5.531337e-09
 -1.436695e-08
 -2.221476e-08
 -2.626203e-08
 -2.588668e-08
 -2.243959e-08
 -1.772132e-08
 -1.299283e-08
 -8.834948e-09
 -5.351356e-09
 -2.316088e-09
 0.000000e+00
 0.000000e+00
 1.284296e-09
 2.340861e-09
 2.956533e-09
 2.938300e-09
 2.104583e-09
 2.632259e-10
 -2.814357e-09
 -7.399481e-09
 -1.374136e-08
 -2.182633e-08
 -3.080055e-08
 -3.804023e-08
 -3.877737e-08
 -2.870170e-08
 -9.817261e-09
 8.137832e-09
 1.632863e-08
 1.448725e-08
 8.572291e-09
 4.992959e-09
 7.161071e-09
 1.421432e-08
 2.204240e-08
 2.665528e-08
 2.695659e-08
 2.454277e-08
 2.184944e-08
 2.076251e-08
 2.217398e-08
 2.598076e-08
 3.110436e-08
 3.552629e-08
 3.677858e-08
 3.337765e-08
 2.646971e-08
 1.926540e-08
 1.335820e-08
 5.700916e-09
 -8.778389e-09
 -2.972260e-08
 -4.868577e-08
 -5.731351e-08
 -5.489509e-08
 -4.603331e-08
 -3.533138e-08
 -2.533794e-08
 -1.694841e-08
 -1.019060e-08
 -4.712166e-09
 0.000000e+00
 0.000000e+00
 2.212808e-09
 4.064849e-09
 5.228823e-09
 5.426048e-09
 4.412171e-09
 1.932521e-09
 -2.344620e-09
 -8.898067e-09
 -1.837974e-08
 -3.145431e-08
 -4.804037e-08
 -6.503594e-08
 -7.243078e-08
 -5.529221e-08
 -1.342863e-08
 2.570190e-08
 3.771221e-08
 2.672582e-08
 9.585390e-09
 -1.718175e-10
 4.229045e-09
 2.039499e-08
 3.749042e-08
 4.568362e-08
 4.387121e-08
 3.706825e-08
 3.066033e-08
 2.793595e-08
 3.018408e-08
 3.722361e-08
 4.744665e-08
 5.731849e-08
 6.132007e-08
 5.479493e-08
 3.990761e-08
 2.659011e-08
 2.178252e-08
 1.777571e-08
 -3.787095e-09
 -4.711014e-08
 -8.715382e-08
 -1.003576e-07
 -9.021304e-08
 -7.105635e-08
 -5.195552e-08
 -3.594644e-08
 -2.337084e-08
 -1.374030e-08
 -6.281229e-09
 0.000000e+00
 0.000000e+00
 3.508211e-09
 6.485877e-09
 8.474469e-09
 9.123830e-09
 8.172882e-09
 5.373924e-09
 3.685029e-10
 -7.484465e-09
 -1.934088e-08
 -3.714619e-08
 -6.363285e-08
 -1.001000e-07
 -1.330625e-07
 -1.131017e-07
 -1.353603e-08
 7.686746e-08
 8.390709e-08
 4.409793e-08
 2.177227e-09
 -2.108441e-08
 -1.223886e-08
 2.587651e-08
 6.369402e-08
 7.580213e-08
 6.570327e-08
 4.877702e-08
 3.545035e-08
 2.990838e-08
 3.318398e-08
 4.495989e-08
 6.372430e-08
 8.498302e-08
 9.765849e-08
 8.631242e-08
 5.132087e-08
 2.249430e-08
 2.685406e-08
 4.987746e-08
 2.978518e-08
 -6.828711e-08
 -1.587214e-07
 -1.682536e-07
 -1.331138e-07
 -9.496892e-08
 -6.510358e-08
 -4.301916e-08
 -2.681164e-08
 -1.508187e-08
 -6.635565e-09
 0.000000e+00
 0.000000e+00
 5.347233e-09
 9.915689e-09
 1.307580e-08
 1.442546e-08
 1.376438e-08
 1.097638e-08
 5.845391e-09
 -2.201696e-09
 -1.452179e-08
 -3.413471e-08
 -6.773087e-08
 -1.299622e-07
 -2.470246e-07
 -2.803308e-07
 -2.637073e-10
 2.389067e-07
 1.734105e-07
 5.845489e-08
 -2.380958e-08
 -7.662168e-08
 -6.427258e-08
 3.262704e-08
 1.221745e-07
 1.298004e-07
 9.298091e-08
 5.578812e-08
 3.198793e-08
 2.288004e-08
 2.753401e-08
 4.529467e-08
 7.632683e-08
 1.197837e-07
 1.606272e-07
 1.483021e-07
 5.608790e-08
 -2.247876e-08
 2.962920e-09
 1.267253e-07
 1.720300e-07
 -1.010205e-07
 -3.385638e-07
 -2.769062e-07
 -1.727448e-07
 -1.092352e-07
 -7.042905e-08
 -4.434303e-08
 -2.580909e-08
 -1.307909e-08
 -5.109882e-09
 0.000000e+00
 0.000000e+00
 7.992079e-09
 1.479487e-08
 1.952388e-08
 2.175350e-08
 2.146781e-08
 1.886626e-08
 1.411860e-08
 7.104931e-09
 -2.956408e-09
 -1.837534e-08
 -4.566725e-08
 -1.054079e-07
 -2.758277e-07
 -1.345150e-06
 -2.869687e-08
 8.774043e-07
 2.267863e-07
 3.762094e-08
 -6.905200e-08
 -1.966598e-07
 -2.300148e-07
 5.140915e-08
 2.903499e-07
 2.245175e-07
 1.143615e-07
 4.790813e-08
 1.363127e-08
 2.165987e-09
 8.949929e-09
 3.241138e-08
 7.510675e-08
 1.485447e-07
 2.772567e-07
 3.206990e-07
 4.490065e-08
 -1.959271e-07
 -1.151229e-07
 1.189031e-07
 1.217895e-06
 -8.676531e-08
 -9.896911e-07
 -3.426134e-07
 -1.678954e-07
 -1.004583e-07
 -6.418685e-08
 -3.865992e-08
 -1.908967e-08
 -6.127245e-09
 -5.324834e-10
 0.000000e+00
 0.000000e+00
 1.188172e-08
 2.183057e-08
 2.854382e-08
 3.163388e-08
 3.148196e-08
 2.885604e-08
 2.455817e-08
 1.924235e-08
 1.340544e-08
 7.512967e-09
 2.321951e-09
 7.525078e-12
 1.007410e-08
 -2.290303e-08
 1.743192e-05
 -3.191638e-08
 -1.063285e-08
 -4.093160e-08
 -8.757958e-08
 -2.402296e-07
 -1.293861e-06
 3.079915e-08
 9.357634e-07
 2.783129e-07
 8.813147e-08
 9.177274e-09
 -2.677044e-08
 -3.638653e-08
 -2.573054e-08
 1.687071e-09
 4.594369e-08
 1.224630e-07
 3.095566e-07
 1.396875e-06
 8.503564e-08
 -8.549339e-07
 -2.720887e-07
 -1.671713e-07
 -1.074803e-07
 -1.755405e-05
 -8.715383e-08
 -1.081244e-07
 -8.333679e-08
 -6.702942e-08
 -4.926753e-08
 -2.787025e-08
 -5.733513e-09
 8.818144e-09
 9.639946e-09
 0.000000e+00
 0.000000e+00
 1.782026e-08
 3.226790e-08
 4.132194e-08
 4.481911e-08
 4.397034e-08
 4.048811e-08
 3.598606e-08
 3.189176e-08
 2.985765e-08
 3.286111e-08
 4.817274e-08
 9.725725e-08
 2.564912e-07
 8.903772e-07
 -2.557648e-08
 -1.347879e-06
 -2.807529e-07
 -1.058781e-07
 -2.973514e-08
 3.311877e-08
 3.746847e-08
 1.750949e-05
 4.032363e-08
 3.737938e-08
 -2.194385e-08
 -6.680693e-08
 -9.235244e-08
 -9.495427e-08
 -7.680240e-08
 -4.402624e-08
 -7.906020e-09
 1.654072e-08
 2.245995e-08
 9.579467e-08
 -1.731812e-05
 7.193807e-08
 -1.328312e-07
 -3.564512e-07
 -1.011564e-06
 -9.905842e-08
 1.224165e-06
 1.628326e-07
 5.352023e-09
 -3.570780e-08
 -3.877643e-08
 -1.907286e-08
 1.558327e-08
 3.942377e-08
 3.158994e-08
 0.000000e+00
 0.000000e+00
 2.738402e-08
 4.844013e-08
 5.989680e-08
 6.242373e-08
 5.906009e-08
 5.309603e-08
 4.702810e-08
 4.266228e-08
 4.185019e-08
 4.770134e-08
 6.666589e-08
 1.118081e-07
 2.001647e-07
 2.494179e-07
 2.335224e-09
 -2.798046e-07
 -2.423351e-07
 -1.021712e-07
 3.734950e-08
 2.805871e-07
 9.807702e-07
 9.349116e-08
 -1.241287e-06
 -2.281645e-07
 -1.424666e-07
 -1.631519e-07
 -1.819492e-07
 -1.747642e-07
 -1.434130e-07
 -9.408826e-08
 -4.888657e-08
 -6.646863e-08
 -2.579925e-07
 -8.259351e-07
 3.448530e-07
 1.531044e-06
 4.700693e-08
 -2.938502e-07
 -3.747954e-07
 -1.317347e-07
 1.476665e-07
 1.134047e-07
 6.951206e-09
 -3.416717e-08
 -5.001900e-08
 -3.019287e-08
 4.858792e-08
 1.080891e-07
 7.965917e-08
 0.000000e+00
 0.000000e+00
 4.385513e-08
 7.495046e-08
 8.780847e-08
 8.592150e-08
 7.658380e-08
 6.567749e-08
 5.636520e-08
 5.006632e-08
 4.769117e-08
 5.053479e-08
 6.065741e-08
 7.930627e-08
 9.726456e-08
 7.642687e-08
 -1.703833e-08
 -1.135478e-07
 -1.336835e-07
 -9.374877e-08
 1.919793e-08
 2.419833e-07
 4.119231e-07
 2.036035e-07
 -9.684978e-08
 -1.447379e-07
 -1.870396e-07
 -2.739667e-07
 -3.009450e-07
 -2.784025e-07
 -2.303080e-07
 -1.470249e-07
 -3.334615e-08
 4.015169e-09
 -1.652876e-07
 -1.135276e-06
 1.419398e-06
 1.139067e-06
 -5.923617e-07
 -2.957510e-07
 -2.202835e-07
 -1.149169e-07
 -2.926192e-08
 -3.515472e-08
 -6.134313e-08
 -4.593171e-08
 -8.974672e-08
 -1.281348e-07
 1.036376e-07
 2.910739e-07
 1.759924e-07
 0.000000e+00
 0.000000e+00
 7.447056e-08
 1.214423e-07
 1.310737e-07
 1.164932e-07
 9.516273e-08
 7.637585e-08
 6.261541e-08
 5.362058e-08
 4.847584e-08
 4.613066e-08
 4.498150e-08
 4.155425e-08
 2.917589e-08
 2.215926e-09
 -3.057854e-08
 -5.113901e-08
 -7.371517e-08
 -1.471679e-07
 -1.409762e-07
 1.742792e-07
 4.185735e-07
 3.103820e-07
 2.048942e-07
 1.307368e-07
 -1.906305e-07
 -4.730060e-07
 -4.677174e-07
 -3.998339e-07
 -3.515656e-07
 -2.558504e-07
 5.773875e-08
 2.861145e-07
 2.453953e-07
 2.093015e-07
 1.774566e-05
 -1.740364e-05
 -1.739480e-07
 -2.129539e-07
 -1.354867e-07
 -8.333213e-08
 -7.727282e-08
 -1.648646e-07
 -2.121795e-07
 4.023171e-09
 6.154846e-08
 -1.084449e-06
 1.135245e-07
 9.457660e-07
 2.457652e-07
 0.000000e+00
 0.000000e+00
 1.357839e-07
 2.101353e-07
 1.988785e-07
 1.519777e-07
 1.100502e-07
 8.166590e-08
 6.403180e-08
 5.332471e-08
 4.639434e-08
 4.024396e-08
 3.092588e-08
 1.247221e-08
 -2.150625e-08
 -6.280150e-08
 -6.329233e-08
 5.366519e-09
 4.113377e-08
 -1.089468e-07
 -1.200458e-06
 9.111730e-08
 9.787962e-07
 3.332439e-07
 2.725101e-07
 1.238657e-06
 -1.399507e-07
 -1.122190e-06
 -6.141668e-07
 -5.279828e-07
 -3.485848e-07
 -1.139593e-06
 1.503427e-07
 1.015002e-06
 4.819769e-07
 9.424101e-07
 4.238687e-07
 -1.295487e-06
 1.818452e-07
 -8.501998e-08
 -3.412284e-08
 -1.127607e-08
 -2.716443e-08
 -1.656163e-07
 -1.218630e-06
 9.970579e-08
 1.004278e-06
 3.022438e-07
 1.756278e-05
 2.768540e-08
 2.737754e-08
 0.000000e+00
 0.000000e+00
 2.631599e-07
 4.031730e-07
 2.968908e-07
 1.761514e-07
 1.101332e-07
 7.622506e-08
 5.867505e-08
 4.929018e-08
 4.338033e-08
 3.714611e-08
 2.565353e-08
 2.817428e-10
 -5.538918e-08
 -1.680066e-07
 -1.968810e-07
 9.066140e-08
 3.390498e-07
 2.833036e-07
 1.227928e-07
 1.749114e-05
 -1.974152e-08
 -2.598370e-08
 -8.166591e-08
 -7.878345e-08
 -1.756417e-05
 -1.579512e-07
 -3.476506e-07
 -1.390381e-06
 -4.752119e-08
 8.410183e-07
 1.766845e-05
 6.249705e-08
 7.139108e-08
 -1.516871e-08
 -2.808187e-07
 -1.776016e-05
 3.171189e-08
 1.046269e-07
 8.640852e-08
 9.069914e-08
 1.165106e-07
 1.648276e-07
 1.772751e-07
 1.769334e-05
 3.687705e-07
 9.769016e-07
 -3.691161e-09
 -1.341582e-06
 -2.459423e-07
 0.000000e+00
 0.000000e+00
 2.622556e-07
 1.014880e-06
 3.262760e-07
 1.429075e-07
 8.018601e-08
 5.566252e-08
 4.568651e-08
 4.191373e-08
 4.051571e-08
 3.873875e-08
 3.301997e-08
 1.612093e-08
 -3.223473e-08
 -1.877118e-07
 -1.231965e-06
 1.312689e-07
 1.118802e-06
 6.177064e-07
 9.908525e-07
 -7.004087e-08
 -1.442893e-06
 -4.200584e-07
 -4.085333e-07
 -9.886665e-07
 -4.963886e-08
 1.294052e-06
 2.712427e-07
 1.348019e-07
 1.770396e-05
 8.582946e-07
 -4.389145e-08
 -1.404489e-06
 -4.065846e-07
 -4.493169e-07
 -1.103964e-06
 -1.589524e-07
 1.275915e-06
 2.981189e-07
 1.773568e-07
 1.721075e-07
 2.429112e-07
 4.499023e-07
 1.153816e-06
 3.214396e-07
 -9.414709e-07
 5.317001e-08
 -1.361988e-07
 -3.712111e-07
 -2.462926e-07
 0.000000e+00
 0.000000e+00
 1.743404e-05
 -6.389280e-09
 2.891782e-08
 1.819922e-08
 1.895835e-08
 2.249820e-08
 2.710072e-08
 3.230872e-08
 3.791391e-08
 4.378235e-08
 4.997065e-08
 5.725375e-08
 6.890064e-08
 9.809426e-08
 9.891445e-08
 1.762426e-05
 3.106017e-07
 4.499668e-07
 2.099859e-07
 -2.624705e-07
 -4.870402e-07
 -4.063498e-07
 -3.443494e-07
 -3.205872e-07
 -1.963757e-08
 3.449080e-07
 5.115924e-07
 1.090429e-06
 2.119439e-07
 -1.091912e-06
 -3.036902e-07
 -4.637095e-07
 -4.525191e-07
 -4.422405e-07
 -4.525595e-07
 -1.617949e-07
 1.892979e-07
 2.282559e-07
 1.770078e-07
 1.889828e-07
 2.624240e-07
 4.099358e-07
 5.558761e-07
 4.569070e-07
 2.098454e-07
 -1.028006e-07
 -3.639163e-07
 -3.472350e-07
 -1.921056e-07
 0.000000e+00
 0.000000e+00
 -2.738642e-07
 -1.428715e-06
 -3.056215e-07
 -1.139080e-07
 -4.435896e-08
 -1.159303e-08
 7.936156e-09
 2.231284e-08
 3.507132e-08
 4.860041e-08
 6.614504e-08
 9.514854e-08
 1.575817e-07
 3.316750e-07
 9.880565e-07
 1.226130e-07
 -1.043317e-06
 1.074942e-06
 -8.661224e-08
 -9.565028e-07
 -3.296987e-07
 -1.952229e-07
 -1.591865e-07
 -1.044143e-07
 3.388612e-08
 2.053385e-07
 3.439542e-07
 3.955213e-07
 1.406469e-07
 -1.889088e-07
 -2.828463e-07
 -3.092631e-07
 -3.276882e-07
 -3.264215e-07
 -2.833044e-07
 -1.512821e-07
 2.774237e-09
 8.413949e-08
 1.148157e-07
 1.481461e-07
 2.058303e-07
 2.876840e-07
 3.726123e-07
 4.854130e-07
 1.429552e-06
 -3.186452e-08
 -1.043499e-06
 -4.094882e-07
 -1.718255e-07
 0.000000e+00
 0.000000e+00
 -1.938465e-07
 -3.834855e-07
 -2.992981e-07
 -1.554089e-07
 -7.797695e-08
 -3.438920e-08
 -6.687443e-09
 1.377304e-08
 3.157259e-08
 4.996339e-08
 7.270270e-08
 1.062120e-07
 1.626267e-07
 2.566706e-07
 3.014469e-07
 3.017561e-08
 -3.220619e-07
 -3.817944e-07
 -1.778599e-05
 -4.102947e-08
 1.455638e-07
 8.868338e-08
 7.575375e-09
 1.676975e-10
 5.100526e-08
 1.240665e-07
 1.765508e-07
 1.636683e-07
 5.554576e-08
 -7.898966e-08
 -1.562374e-07
 -1.899170e-07
 -2.161719e-07
 -2.403952e-07
 -2.326656e-07
 -1.699430e-07
 -8.064266e-08
 -7.083958e-09
 4.207897e-08
 8.067020e-08
 1.202142e-07
 1.631443e-07
 2.090750e-07
 2.700670e-07
 2.835758e-07
 -1.748767e-05
 -2.824417e-07
 -2.480900e-07
 -1.087026e-07
 0.000000e+00
 0.000000e+00
 -1.149614e-07
 -1.923044e-07
 -1.852745e-07
 -1.318731e-07
 -8.069941e-08
 -4.273895e-08
 -1.467621e-08
 7.695127e-09
 2.755699e-08
 4.738444e-08
 6.945396e-08
 9.582287e-08
 1.258563e-07
 1.446060e-07
 1.004976e-07
 -7.155627e-08
 -3.968249e-07
 -1.233527e-06
 -1.375930e-06
 1.270128e-06
 1.112179e-06
 3.056714e-07
 9.602290e-08
 4.272346e-08
 4.507228e-08
 6.368730e-08
 7.208925e-08
 5.135549e-08
 7.829394e-10
 -5.148669e-08
 -7.402825e-08
 -7.196513e-08
 -9.922674e-08
 -1.868802e-07
 -2.491280e-07
 -2.176461e-07
 -1.402557e-07
 -7.003088e-08
 -2.119304e-08
 1.048906e-08
 3.023781e-08
 3.843500e-08
 3.257265e-08
 1.638267e-08
 4.221505e-07
 -1.462790e-09
 4.004116e-07
 -2.394587e-08
 -1.523923e-08
 0.000000e+00
 0.000000e+00
 -6.553987e-08
 -1.089793e-07
 -1.166010e-07
 -9.731003e-08
 -6.881480e-08
 -4.126478e-08
 -1.718145e-08
 4.007622e-09
 2.355308e-08
 4.257486e-08
 6.166362e-08
 8.003448e-08
 9.323727e-08
 8.903707e-08
 4.656361e-08
 -5.017288e-08
 -1.917757e-07
 -2.590239e-07
 -4.974706e-08
 1.769311e-05
 2.060845e-07
 1.263517e-07
 6.125759e-08
 3.634378e-08
 2.420442e-08
 1.438598e-08
 -4.703362e-10
 -2.482854e-08
 -5.136438e-08
 -6.039205e-08
 -2.716957e-08
 7.616893e-08
 1.082887e-07
 -1.634771e-07
 -3.881476e-07
 -3.073859e-07
 -1.846158e-07
 -1.089598e-07
 -6.746800e-08
 -4.876389e-08
 -4.884833e-08
 -7.145430e-08
 -1.297427e-07
 -2.469038e-07
 -2.801337e-07
 -1.749926e-05
 2.405627e-07
 1.790737e-07
 7.370642e-08
 0.000000e+00
 0.000000e+00
 -3.903974e-08
 -6.657134e-08
 -7.624347e-08
 -7.004150e-08
 -5.466159e-08
 -3.589911e-08
 -1.672124e-08
 1.932489e-09
 1.999589e-08
 3.750807e-08
 5.405351e-08
 6.808976e-08
 7.607186e-08
 7.222786e-08
 5.177665e-08
 2.144083e-08
 2.240313e-08
 1.826024e-07
 9.063290e-07
 9.457744e-08
 -1.197864e-06
 -1.504640e-07
 -6.834133e-09
 1.968376e-08
 1.137569e-09
 -2.976463e-08
 -6.120640e-08
 -9.644608e-08
 -1.205353e-07
 -1.108185e-07
 -5.070390e-08
 1.267001e-07
 1.203921e-06
 -1.049589e-07
 -1.004984e-06
 -3.535685e-07
 -1.774377e-07
 -1.149150e-07
 -9.219039e-08
 -9.047480e-08
 -1.069239e-07
 -1.477989e-07
 -2.331530e-07
 -4.261195e-07
 -1.047859e-06
 -3.732499e-08
 1.386886e-06
 3.388727e-07
 1.259659e-07
 0.000000e+00
 0.000000e+00
 -2.492299e-08
 -4.367869e-08
 -5.259825e-08
 -5.165326e-08
 -4.334258e-08
 -3.061178e-08
 -1.560573e-08
 4.592010e-10
 1.691801e-08
 3.322954e-08
 4.861139e-08
 6.174009e-08
 7.068304e-08
 7.367393e-08
 7.183525e-08
 7.472462e-08
 1.072674e-07
 2.043949e-07
 2.898911e-07
 8.546856e-08
 -1.695242e-07
 -1.182412e-07
 1.258622e-08
 4.660876e-08
 -1.339686e-08
 -7.749389e-08
 -1.129230e-07
 -1.777754e-07
 -2.267812e-07
 -2.060694e-07
 -1.602523e-07
 -1.376244e-07
 -8.724603e-08
 -1.753445e-05
 -6.946399e-08
 -9.647407e-08
 -8.401705e-08
 -8.746983e-08
 -9.796758e-08
 -1.153129e-07
 -1.424480e-07
 -1.846660e-07
 -2.501497e-07
 -3.447923e-07
 -3.715332e-07
 -7.243990e-08
 2.619596e-07
 2.473892e-07
 1.106347e-07
 0.000000e+00
 0.000000e+00
 -1.742712e-08
 -3.130624e-08
 -3.926810e-08
 -4.067193e-08
 -3.627498e-08
 -2.743265e-08
 -1.545760e-08
 -1.389557e-09
 1.394610e-08
 2.978627e-08
 4.530042e-08
 5.954941e-08
 7.164154e-08
 8.128414e-08
 8.986743e-08
 1.015816e-07
 1.219451e-07
 1.458515e-07
 1.347723e-07
 5.093177e-08
 -3.070393e-08
 -6.832901e-09
 1.275172e-07
 1.931353e-07
 -3.767914e-08
 -1.812848e-07
 -1.026528e-07
 -2.744500e-07
 -4.287135e-07
 -3.215349e-07
 -2.438881e-07
 -3.462487e-07
 -9.602967e-07
 -3.996267e-08
 1.278966e-06
 2.036265e-07
 2.099927e-08
 -5.395460e-08
 -9.735097e-08
 -1.307109e-07
 -1.633875e-07
 -1.988148e-07
 -2.330105e-07
 -2.477740e-07
 -1.995172e-07
 -6.101422e-08
 7.667729e-08
 1.112763e-07
 6.728140e-08
 0.000000e+00
 0.000000e+00
 -1.369484e-08
 -2.516751e-08
 -3.274311e-08
 -3.558427e-08
 -3.363227e-08
 -2.733257e-08
 -1.736465e-08
 -4.496452e-09
 1.045622e-08
 2.664600e-08
 4.325153e-08
 5.959829e-08
 7.532098e-08
 9.046826e-08
 1.052389e-07
 1.187222e-07
 1.262527e-07
 1.172475e-07
 8.017877e-08
 2.092241e-08
 -2.374763e-08
 -5.536482e-09
 1.518854e-07
 1.224417e-06
 -6.515572e-08
 -8.469726e-07
 8.249736e-07
 -3.094102e-07
 -1.066728e-06
 -3.230400e-07
 -1.700918e-07
 -2.185173e-07
 -2.660782e-07
 -2.387097e-08
 2.487912e-07
 1.954850e-07
 4.798028e-08
 -4.609622e-08
 -1.054166e-07
 -1.459417e-07
 -1.804127e-07
 -2.122838e-07
 -2.298948e-07
 -2.119335e-07
 -1.468898e-07
 -5.233201e-08
 2.662623e-08
 5.553719e-08
 3.876443e-08
 0.000000e+00
 0.000000e+00
 -1.228392e-08
 -2.307637e-08
 -3.108880e-08
 -3.537304e-08
 -3.537205e-08
 -3.091227e-08
 -2.217942e-08
 -9.694442e-09
 5.731619e-09
 2.311301e-08
 4.151366e-08
 6.034852e-08
 7.962831e-08
 9.989194e-08
 1.212839e-07
 1.406536e-07
 1.464401e-07
 1.195488e-07
 5.446447e-08
 -2.238311e-08
 -8.000387e-08
 -1.153809e-07
 -1.512350e-07
 -1.471962e-07
 -1.764761e-05
 -2.697059e-07
 -3.868153e-07
 -1.785835e-05
 -1.051337e-07
 1.183056e-07
 7.712948e-08
 -1.909407e-08
 -3.723986e-08
 4.344135e-08
 1.297175e-07
 1.141939e-07
 2.165049e-08
 -7.241452e-08
 -1.320014e-07
 -1.656912e-07
 -1.971694e-07
 -2.379068e-07
 -2.639930e-07
 -2.285169e-07
 -1.298469e-07
 -2.597331e-08
 3.505105e-08
 4.850182e-08
 3.105904e-08
 0.000000e+00
 0.000000e+00
 -1.240034e-08
 -2.382467e-08
 -3.322954e-08
 -3.951129e-08
 -4.163031e-08
 -3.882132e-08
 -3.079665e-08
 -1.786602e-08
 -9.426729e-10
 1.862041e-08
 3.944841e-08
 6.076249e-08
 8.293859e-08
 1.077370e-07
 1.378705e-07
 1.741312e-07
 2.013997e-07
 1.672825e-07
 4.140655e-08
 -9.116702e-08
 -1.623639e-07
 -2.287945e-07
 -4.111114e-07
 -1.094240e-06
 -2.781874e-07
 8.055012e-07
 -1.072146e-06
 -1.384504e-06
 1.223658e-06
 1.080075e-06
 2.964811e-07
 1.016684e-07
 6.564494e-08
 1.002665e-07
 1.449763e-07
 1.168584e-07
 -1.271508e-08
 -1.414159e-07
 -1.866872e-07
 -1.857355e-07
 -1.979157e-07
 -2.717221e-07
 -3.692392e-07
 -3.216894e-07
 -1.144627e-07
 5.238717e-08
 9.422315e-08
 7.191705e-08
 3.616537e-08
 0.000000e+00
 0.000000e+00
 -1.347934e-08
 -2.657874e-08
 -3.850132e-08
 -4.785833e-08
 -5.289881e-08
 -5.204859e-08
 -4.442484e-08
 -3.011137e-08
 -1.026717e-08
 1.296396e-08
 3.709931e-08
 6.055932e-08
 8.382921e-08
 1.101441e-07
 1.466172e-07
 2.076430e-07
 3.180168e-07
 3.366651e-07
 3.064839e-08
 -2.506131e-07
 -2.526355e-07
 -2.484962e-07
 -3.426074e-07
 -4.436476e-07
 -2.894368e-07
 -1.333752e-07
 -2.191180e-07
 -1.084161e-07
 1.761534e-05
 1.651673e-07
 1.330555e-07
 9.752695e-08
 9.818668e-08
 1.394977e-07
 2.404250e-07
 2.533234e-07
 -5.373947e-08
 -3.228186e-07
 -2.856855e-07
 -1.934659e-07
 -1.248128e-07
 -2.434919e-07
 -6.542521e-07
 -6.282422e-07
 -2.385173e-08
 2.854816e-07
 2.093161e-07
 1.017675e-07
 4.028346e-08
 0.000000e+00
 0.000000e+00
 -1.486182e-08