<VTKFile type="UnstructuredGrid"  version="0.1"   >
<UnstructuredGrid>  
<Piece  NumberOfPoints="     2601"  NumberOfCells="     5000">  
<Points>  
<DataArray  type="Float64"  NumberOfComponents="3"  format="ascii">  
 0.000000 0.000000 0.000000 
 0.020000 0.000000 0.000000 
 0.040000 0.000000 0.000000 
 0.060000 0.000000 0.000000 
 0.080000 0.000000 0.000000 
 0.100000 0.000000 0.000000 
 0.120000 0.000000 0.000000 
 0.140000 0.000000 0.000000 
 0.160000 0.000000 0.000000 
 0.180000 0.000000 0.000000 
 0.200000 0.000000 0.000000 
 0.220000 0.000000 0.000000 
 0.240000 0.000000 0.000000 
 0.260000 0.000000 0.000000 
 0.280000 0.000000 0.000000 
 0.300000 0.000000 0.000000 
 0.320000 0.000000 0.000000 
 0.340000 0.000000 0.000000 
 0.360000 0.000000 0.000000 
 0.380000 0.000000 0.000000 
 0.400000 0.000000 0.000000 
 0.420000 0.000000 0.000000 
 0.440000 0.000000 0.000000 
 0.460000 0.000000 0.000000 
 0.480000 0.000000 0.000000 
 0.500000 0.000000 0.000000 
 0.520000 0.000000 0.000000 
 0.540000 0.000000 0.000000 
 0.560000 0.000000 0.000000 
 0.580000 0.000000 0.000000 
 0.600000 0.000000 0.000000 
 0.620000 0.000000 0.000000 
 0.640000 0.000000 0.000000 
 0.660000 0.000000 0.000000 
 0.680000 0.000000 0.000000 
 0.700000 0.000000 0.000000 
 0.720000 0.000000 0.000000 
 0.740000 0.000000 0.000000 
 0.760000 0.000000 0.000000 
 0.780000 0.000000 0.000000 
 0.800000 0.000000 0.000000 
 0.820000 0.000000 0.000000 
 0.840000 0.000000 0.000000 
 0.860000 0.000000 0.000000 
 0.880000 0.000000 0.000000 
 0.900000 0.000000 0.000000 
 0.920000 0.000000 0.000000 
 0.940000 0.000000 0.000000 
 0.960000 0.000000 0.000000 
 0.980000 0.000000 0.000000 
 1.000000 0.000000 0.000000 
 0.000000 0.020000 0.000000 
 0.020000 0.020000 0.000000 
 0.040000 0.020000 0.000000 
 0.060000 0.020000 0.000000 
 0.080000 0.020000 0.000000 
 0.100000 0.020000 0.000000 
 0.120000 0.020000 0.000000 
 0.140000 0.020000 0.000000 
 0.160000 0.020000 0.000000 
 0.180000 0.020000 0.000000 
 0.200000 0.020000 0.000000 
 0.220000 0.020000 0.000000 
 0.240000 0.020000 0.000000 
 0.260000 0.020000 0.000000 
 0.280000 0.020000 0.000000 
 0.300000 0.020000 0.000000 
 0.320000 0.020000 0.000000 
 0.340000 0.020000 0.000000 
 0.360000 0.020000 0.000000 
 0.380000 0.020000 0.000000 
 0.400000 0.020000 0.000000 
 0.420000 0.020000 0.000000 
 0.440000 0.020000 0.000000 
 0.460000 0.020000 0.000000 
 0.480000 0.020000 0.000000 
 0.500000 0.020000 0.000000 
 0.520000 0.020000 0.000000 
 0.540000 0.020000 0.000000 
 0.560000 0.020000 0.000000 
 0.580000 0.020000 0.000000 
 0.600000 0.020000 0.000000 
 0.620000 0.020000 0.000000 
 0.640000 0.020000 0.000000 
 0.660000 0.020000 0.000000 
 0.680000 0.020000 0.000000 
 0.700000 0.020000 0.000000 
 0.720000 0.020000 0.000000 
 0.740000 0.020000 0.000000 
 0.760000 0.020000 0.000000 
 0.780000 0.020000 0.000000 
 0.800000 0.020000 0.000000 
 0.820000 0.020000 0.000000 
 0.840000 0.020000 0.000000 
 0.860000 0.020000 0.000000 
 0.880000 0.020000 0.000000 
 0.900000 0.020000 0.000000 
 0.920000 0.020000 0.000000 
 0.940000 0.020000 0.000000 
 0.960000 0.020000 0.000000 
 0.980000 0.020000 0.000000 
 1.000000 0.020000 0.000000 
 0.000000 0.040000 0.000000 
 0.020000 0.040000 0.000000 
 0.040000 0.040000 0.000000 
 0.060000 0.040000 0.000000 
 0.080000 0.040000 0.000000 
 0.100000 0.040000 0.000000 
 0.120000 0.040000 0.000000 
 0.140000 0.040000 0.000000 
 0.160000 0.040000 0.000000 
 0.180000 0.040000 0.000000 
 0.200000 0.040000 0.000000 
 0.220000 0.040000 0.000000 
 0.240000 0.040000 0.000000 
 0.260000 0.040000 0.000000 
 0.280000 0.040000 0.000000 
 0.300000 0.040000 0.000000 
 0.320000 0.040000 0.000000 
 0.340000 0.040000 0.000000 
 0.360000 0.040000 0.000000 
 0.380000 0.040000 0.000000 
 0.400000 0.040000 0.000000 
 0.420000 0.040000 0.000000 
 0.440000 0.040000 0.000000 
 0.460000 0.040000 0.000000 
 0.480000 0.040000 0.000000 
 0.500000 0.040000 0.000000 
 0.520000 0.040000 0.000000 
 0.540000 0.040000 0.000000 
 0.560000 0.040000 0.000000 
 0.580000 0.040000 0.000000 
 0.600000 0.040000 0.000000 
 0.620000 0.040000 0.000000 
 0.640000 0.040000 0.000000 
 0.660000 0.040000 0.000000 
 0.680000 0.040000 0.000000 
 0.700000 0.040000 0.000000 
 0.720000 0.040000 0.000000 
 0.740000 0.040000 0.000000 
 0.760000 0.040000 0.000000 
 0.780000 0.040000 0.000000 
 0.800000 0.040000 0.000000 
 0.820000 0.040000 0.000000 
 0.840000 0.040000 0.000000 
 0.860000 0.040000 0.000000 
 0.880000 0.040000 0.000000 
 0.900000 0.040000 0.000000 
 0.920000 0.040000 0.000000 
 0.940000 0.040000 0.000000 
 0.960000 0.040000 0.000000 
 0.980000 0.040000 0.000000 
 1.000000 0.040000 0.000000 
 0.000000 0.060000 0.000000 
 0.020000 0.060000 0.000000 
 0.040000 0.060000 0.000000 
 0.060000 0.060000 0.000000 
 0.080000 0.060000 0.000000 
 0.100000 0.060000 0.000000 
 0.120000 0.060000 0.000000 
 0.140000 0.060000 0.000000 
 0.160000 0.060000 0.000000 
 0.180000 0.060000 0.000000 
 0.200000 0.060000 0.000000 
 0.220000 0.060000 0.000000 
 0.240000 0.060000 0.000000 
 0.260000 0.060000 0.000000 
 0.280000 0.060000 0.000000 
 0.300000 0.060000 0.000000 
 0.320000 0.060000 0.000000 
 0.340000 0.060000 0.000000 
 0.360000 0.060000 0.000000 
 0.380000 0.060000 0.000000 
 0.400000 0.060000 0.000000 
 0.420000 0.060000 0.000000 
 0.440000 0.060000 0.000000 
 0.460000 0.060000 0.000000 
 0.480000 0.060000 0.000000 
 0.500000 0.060000 0.000000 
 0.520000 0.060000 0.000000 
 0.540000 0.060000 0.000000 
 0.560000 0.060000 0.000000 
 0.580000 0.060000 0.000000 
 0.600000 0.060000 0.000000 
 0.620000 0.060000 0.000000 
 0.640000 0.060000 0.000000 
 0.660000 0.060000 0.000000 
 0.680000 0.060000 0.000000 
 0.700000 0.060000 0.000000 
 0.720000 0.060000 0.000000 
 0.740000 0.060000 0.000000 
 0.760000 0.060000 0.000000 
 0.780000 0.060000 0.000000 
 0.800000 0.060000 0.000000 
 0.820000 0.060000 0.000000 
 0.840000 0.060000 0.000000 
 0.860000 0.060000 0.000000 
 0.880000 0.060000 0.000000 
 0.900000 0.060000 0.000000 
 0.920000 0.060000 0.000000 
 0.940000 0.060000 0.000000 
 0.960000 0.060000 0.000000 
 0.980000 0.060000 0.000000 
 1.000000 0.060000 0.000000 
 0.000000 0.080000 0.000000 
 0.020000 0.080000 0.000000 
 0.040000 0.080000 0.000000 
 0.060000 0.080000 0.000000 
 0.080000 0.080000 0.000000 
 0.100000 0.080000 0.000000 
 0.120000 0.080000 0.000000 
 0.140000 0.080000 0.000000 
 0.160000 0.080000 0.000000 
 0.180000 0.080000 0.000000 
 0.200000 0.080000 0.000000 
 0.220000 0.080000 0.000000 
 0.240000 0.080000 0.000000 
 0.260000 0.080000 0.000000 
 0.280000 0.080000 0.000000 
 0.300000 0.080000 0.000000 
 0.320000 0.080000 0.000000 
 0.340000 0.080000 0.000000 
 0.360000 0.080000 0.000000 
 0.380000 0.080000 0.000000 
 0.400000 0.080000 0.000000 
 0.420000 0.080000 0.000000 
 0.440000 0.080000 0.000000 
 0.460000 0.080000 0.000000 
 0.480000 0.080000 0.000000 
 0.500000 0.080000 0.000000 
 0.520000 0.080000 0.000000 
 0.540000 0.080000 0.000000 
 0.560000 0.080000 0.000000 
 0.580000 0.080000 0.000000 
 0.600000 0.080000 0.000000 
 0.620000 0.080000 0.000000 
 0.640000 0.080000 0.000000 
 0.660000 0.080000 0.000000 
 0.680000 0.080000 0.000000 
 0.700000 0.080000 0.000000 
 0.720000 0.080000 0.000000 
 0.740000 0.080000 0.000000 
 0.760000 0.080000 0.000000 
 0.780000 0.080000 0.000000 
 0.800000 0.080000 0.000000 
 0.820000 0.080000 0.000000 
 0.840000 0.080000 0.000000 
 0.860000 0.080000 0.000000 
 0.880000 0.080000 0.000000 
 0.900000 0.080000 0.000000 
 0.920000 0.080000 0.000000 
 0.940000 0.080000 0.000000 
 0.960000 0.080000 0.000000 
 0.980000 0.080000 0.000000 
 1.000000 0.080000 0.000000 
 0.000000 0.100000 0.000000 
 0.020000 0.100000 0.000000 
 0.040000 0.100000 0.000000 
 0.060000 0.100000 0.000000 
 0.080000 0.100000 0.000000 
 0.100000 0.100000 0.000000 
 0.120000 0.100000 0.000000 
 0.140000 0.100000 0.000000 
 0.160000 0.100000 0.000000 
 0.180000 0.100000 0.000000 
 0.200000 0.100000 0.000000 
 0.220000 0.100000 0.000000 
 0.240000 0.100000 0.000000 
 0.260000 0.100000 0.000000 
 0.280000 0.100000 0.000000 
 0.300000 0.100000 0.000000 
 0.320000 0.100000 0.000000 
 0.340000 0.100000 0.000000 
 0.360000 0.100000 0.000000 
 0.380000 0.100000 0.000000 
 0.400000 0.100000 0.000000 
 0.420000 0.100000 0.000000 
 0.440000 0.100000 0.000000 
 0.460000 0.100000 0.000000 
 0.480000 0.100000 0.000000 
 0.500000 0.100000 0.000000 
 0.520000 0.100000 0.000000 
 0.540000 0.100000 0.000000 
 0.560000 0.100000 0.000000 
 0.580000 0.100000 0.000000 
 0.600000 0.100000 0.000000 
 0.620000 0.100000 0.000000 
 0.640000 0.100000 0.000000 
 0.660000 0.100000 0.000000 
 0.680000 0.100000 0.000000 
 0.700000 0.100000 0.000000 
 0.720000 0.100000 0.000000 
 0.740000 0.100000 0.000000 
 0.760000 0.100000 0.000000 
 0.780000 0.100000 0.000000 
 0.800000 0.100000 0.000000 
 0.820000 0.100000 0.000000 
 0.840000 0.100000 0.000000 
 0.860000 0.100000 0.000000 
 0.880000 0.100000 0.000000 
 0.900000 0.100000 0.000000 
 0.920000 0.100000 0.000000 
 0.940000 0.100000 0.000000 
 0.960000 0.100000 0.000000 
 0.980000 0.100000 0.000000 
 1.000000 0.100000 0.000000 
 0.000000 0.120000 0.000000 
 0.020000 0.120000 0.000000 
 0.040000 0.120000 0.000000 
 0.060000 0.120000 0.000000 
 0.080000 0.120000 0.000000 
 0.100000 0.120000 0.000000 
 0.120000 0.120000 0.000000 
 0.140000 0.120000 0.000000 
 0.160000 0.120000 0.000000 
 0.180000 0.120000 0.000000 
 0.200000 0.120000 0.000000 
 0.220000 0.120000 0.000000 
 0.240000 0.120000 0.000000 
 0.260000 0.120000 0.000000 
 0.280000 0.120000 0.000000 
 0.300000 0.120000 0.000000 
 0.320000 0.120000 0.000000 
 0.340000 0.120000 0.000000 
 0.360000 0.120000 0.000000 
 0.380000 0.120000 0.000000 
 0.400000 0.120000 0.000000 
 0.420000 0.120000 0.000000 
 0.440000 0.120000 0.000000 
 0.460000 0.120000 0.000000 
 0.480000 0.120000 0.000000 
 0.500000 0.120000 0.000000 
 0.520000 0.120000 0.000000 
 0.540000 0.120000 0.000000 
 0.560000 0.120000 0.000000 
 0.580000 0.120000 0.000000 
 0.600000 0.120000 0.000000 
[...]
<PointData  Scalars="U"> 
<DataArray  type="Float64"  Name="U"  format="ascii"> 
 0.000000e+00
 0.000000e+00
 0.000000e+00
 0.000000e+00
 0.000000e+00
 0.000000e+00
 0.000000e+00
 0.000000e+00
 0.000000e+00
 0.000000e+00
 0.000000e+00
 0.000000e+00
 0.000000e+00
 0.000000e+00
 0.000000e+00
 0.000000e+00
 0.000000e+00
 0.000000e+00
 0.000000e+00
 0.000000e+00
 0.000000e+00
 0.000000e+00
 0.000000e+00
 0.000000e+00
 0.000000e+00
 0.000000e+00
 0.000000e+00
 0.000000e+00
 0.000000e+00
 0.000000e+00
 0.000000e+00
 0.000000e+00
 0.000000e+00
 0.000000e+00
 0.000000e+00
 0.000000e+00
 0.000000e+00
 0.000000e+00
 0.000000e+00
 0.000000e+00
 0.000000e+00
 0.000000e+00
 0.000000e+00
 0.000000e+00
 0.000000e+00
 0.000000e+00
 0.000000e+00
 0.000000e+00
 0.000000e+00
 0.000000e+00
 0.000000e+00
 0.000000e+00
 3.043087e-09
 -3.197440e-08
 -1.191840e-07
 -1.783776e-07
 -1.732049e-07
 -2.535800e-07
 -1.333229e-06
 -2.496841e-07
 4.375960e-07
 -1.737737e-05
 -1.697110e-05
 5.551063e-07
 3.890261e-07
 5.499025e-07
 1.358532e-06
 3.413632e-06
 3.607711e-06
 1.079059e-06
 4.047471e-07
 -1.484438e-08
 -2.504493e-07
 -1.773984e-05
 -8.593760e-07
 -2.993697e-06
 -3.087625e-06
 2.414624e-07
 2.883567e-06
 3.058261e-06
 6.587962e-07
 3.096575e-07
 -6.890759e-08
 -1.098847e-06
 -3.450829e-06
 -2.098147e-05
 -4.670072e-07
 8.817568e-07
 2.951866e-06
 3.187388e-06
 -1.647377e-05
 5.449449e-07
 8.574465e-08
 -1.555511e-07
 -9.749066e-07
 -4.139048e-06
 -2.961032e-06
 8.682941e-07
 1.925087e-05
 -1.004199e-07
 -2.278041e-06
 0.000000e+00
 0.000000e+00
 4.367173e-08
 1.407242e-08
 -2.748858e-07
 -4.568011e-07
 -2.959054e-07
 -9.584606e-08
 -3.324185e-08
 1.724396e-05
 -1.187071e-06
 -7.355212e-07
 1.882363e-06
 1.906442e-06
 4.222986e-07
 5.981832e-07
 1.192788e-06
 1.780501e-06
 1.759540e-06
 1.198129e-06
 6.459535e-07
 5.614049e-08
 -9.512608e-07
 -2.413285e-07
 7.256535e-07
 -1.081306e-06
 -1.319701e-06
 -2.167828e-07
 1.998980e-06
 2.663292e-08
 -1.097369e-07
 9.498978e-07
 1.437405e-07
 2.537471e-07
 -2.390059e-06
 -2.222167e-06
 6.540231e-07
 6.647807e-07
 1.049222e-06
 3.990641e-07
 1.023240e-06
 1.936530e-06
 -6.516854e-07
 -5.804174e-09
 2.871957e-07
 -9.627172e-07
 1.652647e-05
 3.858666e-07
 -3.009572e-08
 -1.652837e-06
 -7.582876e-07
 0.000000e+00
 0.000000e+00
 -1.544545e-08
 8.987287e-07
 -4.624595e-07
 -1.255270e-06
 -3.634171e-07
 1.261973e-07
 9.457162e-07
 1.003170e-06
 -1.636962e-06
 -8.538095e-07
 2.770278e-06
 7.762828e-07
 -9.369058e-07
 4.043674e-07
 8.755868e-07
 1.036641e-06
 9.911150e-07
 1.018312e-06
 9.475574e-07
 4.102458e-07
 -3.394219e-07
 -2.472026e-07
 1.139961e-06
 -3.379899e-07
 -1.449474e-06
 -1.629711e-06
 1.537552e-07
 -1.641243e-05
 1.769625e-05
 1.901389e-07
 2.432851e-07
 -3.715614e-07
 -1.844837e-05
 -7.121653e-07
 -2.512662e-08
 4.237533e-07
 4.675261e-07
 -6.080647e-07
 7.618531e-07
 1.679169e-06
 6.407697e-07
 1.760210e-05
 1.373948e-07
 4.938762e-07
 -6.297980e-07
 -1.689569e-06
 -6.431299e-07
 -7.099824e-07
 -4.912933e-07
 0.000000e+00
 0.000000e+00
 -4.272750e-07
 -7.168165e-07
 -1.831101e-05
 -6.532385e-07
 -1.466087e-07
 2.238927e-07
 1.583183e-07
 -1.421197e-07
 -1.785031e-05
 -2.201251e-07
 2.014873e-07
 -3.440387e-05
 6.757124e-07
 7.131459e-07
 7.965091e-07
 6.986877e-07
 -3.995848e-07
 8.186830e-07
 1.705066e-06
 1.759886e-06
 -1.224822e-06
 -1.144310e-06
 5.134410e-07
 -1.734944e-05
 -5.150975e-08
 -3.196462e-07
 1.660660e-05
 4.978167e-07
 -2.422870e-07
 -1.252112e-06
 1.795117e-06
 -4.489028e-07
 -8.790796e-07
 8.614621e-07
 2.085999e-07
 3.965480e-07
 5.483091e-07
 5.705829e-07
 1.808850e-05
 7.661931e-07
 1.201937e-06
 -8.742807e-07
 -5.438124e-08
 4.421922e-07
 -1.163385e-06
 -7.975583e-07
 -7.192252e-07
 -7.025812e-07
 -3.993419e-07
 0.000000e+00
 0.000000e+00
 -8.907011e-07
 -2.119043e-06
 -1.466668e-06
 -5.478394e-07
 2.706799e-07
 8.330702e-07
 -2.590337e-07
 -1.036559e-06
 -1.572397e-07
 8.400303e-07
 -1.394820e-06
 4.280379e-07
 3.158063e-06
 1.117140e-06
 8.579244e-07
 7.906541e-07
 6.855855e-07
 1.805308e-05
 5.752503e-07
 1.547501e-06
 -1.740430e-05
 1.647226e-05
 -8.371604e-07
 4.788594e-07
 1.746765e-06
 7.791416e-07
 -4.953865e-07
 -1.617820e-06
 -7.345273e-07
 1.566467e-05
 -2.111208e-07
 -1.540551e-05
 5.489644e-07
 -3.116499e-07
 2.642825e-07
 4.500628e-07
 7.013774e-07
 1.322959e-06
 4.074385e-07
 -6.484220e-07
 5.624193e-07
 1.921443e-07
 1.707326e-05
 -1.815668e-05
 -5.480701e-07
 -2.823947e-07
 -3.785398e-07
 -1.615322e-06
 -4.298423e-07
 0.000000e+00
 0.000000e+00
 -1.223461e-06
 -2.018089e-06
 -3.716686e-06
 -5.002496e-07
 1.894875e-05
 -6.310803e-09
 -1.549306e-06
 -5.449000e-07
 4.232992e-07
 -7.680844e-08
 -2.445613e-07
 2.377608e-07
 8.728969e-07
 9.057411e-07
 7.915183e-07
 8.576272e-07
 1.392007e-06
 3.254236e-07
 -1.255689e-06
 -7.654768e-07
 -1.660263e-05
 1.294673e-06
 -8.763269e-07
 1.602917e-06
 1.839239e-06
 -3.481184e-07
 -9.792873e-07
 -5.589841e-07
 -9.104437e-07
 -7.870695e-07
 1.459030e-05
 2.073012e-08
 -1.492195e-05
 7.854526e-07
 3.521234e-07
 4.456415e-07
 6.608258e-07
 6.861465e-07
 -6.339570e-07
 2.762095e-07
 1.159377e-06
 9.601218e-07
 -1.016793e-06
 -2.920003e-06
 -4.218629e-07
 7.445857e-07
 5.749106e-07
 -3.137843e-07
 1.720288e-05
 0.000000e+00
 0.000000e+00
 -1.845664e-06
 -2.499021e-06
 -1.259239e-06
 3.514250e-05
 -1.900271e-07
 -1.415691e-06
 -5.484800e-07
 1.690130e-05
 -5.548508e-07
 -4.035904e-07
 -2.233030e-07
 7.297791e-08
 3.645362e-07
 5.087103e-07
 5.732361e-07
 6.357462e-07
 5.960945e-07
 1.684145e-07
 -4.463713e-07
 -1.138079e-06
 9.482610e-08
 1.520058e-06
 3.199964e-07
 3.139106e-07
 -1.702733e-05
 -1.701740e-05
 3.268187e-07
 7.301671e-08
 1.282188e-07
 1.798071e-05
 -8.915536e-07
 1.520878e-05
 1.415198e-06
 1.821258e-06
 -1.118359e-07
 3.819672e-07
 6.790901e-07
 1.012505e-06
 8.190227e-07
 1.771188e-05
 4.645624e-08
 2.177666e-07
 9.769917e-07
 -2.839130e-07
 1.778142e-05
 1.838734e-05
 -8.284085e-07
 -2.201593e-07
 -7.478603e-08
 0.000000e+00
 0.000000e+00
 -2.105514e-05
 -1.618029e-06
 -3.543792e-07
 -3.380807e-07
 -2.043902e-06
 -4.825601e-07
 4.068170e-07
 -6.416425e-07
 -2.095331e-06
 -8.030387e-07
 -3.565441e-07
 -9.710275e-08
 6.020177e-08
 1.851771e-07
 3.348268e-07
 4.329698e-07
 3.568599e-07
 9.375720e-08
 -2.338373e-07
 -4.110333e-07
 -2.238619e-07
 5.643084e-08
 2.069375e-07
 -3.790744e-07
 -4.576771e-07
 1.532084e-06
 2.982519e-06
 -1.573226e-07
 5.792896e-07
 6.774587e-07
 -1.153146e-06
 -9.154321e-07
 -1.188635e-06
 -1.693127e-05
 7.201350e-07
 3.615277e-07
 4.085656e-07
 2.233030e-06
 2.978852e-06
 -2.587271e-07
 -1.965138e-06
 -2.106937e-07
 -8.028355e-08
 -1.697003e-05
 3.671846e-07
 -1.908788e-05
 -1.887891e-05
 1.361932e-07
 1.877502e-07
 0.000000e+00
 0.000000e+00
 -4.658427e-06
 -2.820310e-07
 4.983742e-07
 1.725220e-05
 -7.964044e-07
 -4.620878e-07
 9.431629e-07
 -6.357685e-07
 -1.814081e-06
 -8.474463e-07
 -3.235585e-07
 -1.648113e-07
 -2.070269e-07
 -1.951763e-07
 1.385464e-07
 4.275389e-07
 3.316318e-07
 8.768559e-08
 -1.227021e-07
 -2.493694e-07
 -3.658296e-07
 -1.274089e-06
 1.634480e-07
 2.102333e-06
 3.003795e-07
 -1.423290e-06
 7.052117e-07
 -1.577578e-05
 1.925713e-05
 -3.141081e-07
 -2.482275e-06
 -6.577726e-07
 -1.869261e-07
 4.954290e-07
 2.865329e-06
 3.023942e-07
 -1.787610e-06
 5.302971e-07
 -1.560413e-05
 -1.676779e-05
 6.619705e-08
 9.624368e-07
 -1.009312e-06
 -1.149779e-06
 -6.257079e-08
 -2.087032e-06
 1.030996e-06
 2.171282e-06
 3.895630e-07
 0.000000e+00
 0.000000e+00
 -1.067991e-06
 1.557016e-05
 1.685895e-07
 4.926098e-08
 -2.045618e-06
 -9.590708e-07
 4.537690e-07
 -1.810439e-05
 -1.346163e-06
 -3.670510e-07
 8.003052e-08
 -4.889289e-08
 -3.735897e-07
 -1.486216e-06
 -1.135533e-07
 9.911200e-07
 3.955729e-07
 4.416015e-08
 -1.522721e-07
 1.024791e-08
 -8.201490e-07
 -3.569302e-08
 1.691520e-05
 1.591211e-07
 -1.642662e-05
 3.498091e-07
 1.721938e-05
 1.201685e-06
 1.342968e-06
 -1.990860e-05
 -5.594880e-07
 1.790580e-05
 -3.884007e-08
 9.499636e-08
 3.807556e-07
 -1.714686e-05
 -9.644572e-07
 1.685957e-05
 1.379536e-06
 1.600029e-06
 7.042156e-07
 9.584181e-07
 -1.779516e-05
 -8.794382e-07
 1.980900e-07
 5.387476e-07
 1.772915e-05
 -3.842402e-08
 -1.899265e-08
 0.000000e+00
 0.000000e+00
 4.224514e-07
 -5.811833e-07
 1.552455e-05
 -1.253235e-06
 -1.562372e-06
 -1.708216e-06
 -1.883857e-06
 -1.810194e-05
 8.540664e-07
 3.877096e-07
 1.679362e-06
 1.323864e-07
 1.063503e-08
 -3.181889e-07
 1.683555e-05
 2.320892e-07
 4.167459e-07
 2.951328e-08
 -1.184471e-06
 4.311229e-07
 2.540632e-06
 1.859193e-05
 -8.703188e-07
 1.538418e-05
 2.187855e-08
 2.079605e-06
 1.724046e-07
 -1.042647e-06
 -5.767415e-07
 -6.868402e-08
 1.819384e-05
 1.573659e-08
 -7.805621e-07
 -4.300850e-07
 -7.936184e-07
 5.013137e-07
 3.398700e-06
 1.741499e-05
 -2.257086e-06
 -1.764699e-05
 -4.697373e-08
 -1.940699e-06
 -1.756471e-05
 1.038292e-06
 1.048736e-06
 4.411755e-06
 2.499353e-07
 -2.871328e-06
 -4.794240e-07
 0.000000e+00
 0.000000e+00
 1.715405e-08
 2.402837e-07
 -1.104528e-06
 -2.620584e-06
 -1.813238e-06
 -2.935823e-06
 -2.228084e-06
 -1.733212e-07
 -2.155791e-08
 3.872061e-07
 2.160881e-06
 -1.742805e-05
 -1.905148e-06
 -1.679932e-05
 9.525619e-07
 -6.728689e-07
 1.458343e-06
 3.437676e-07
 -4.255203e-07
 1.804769e-05
 1.530681e-06
 -1.781060e-05
 -2.499067e-07
 2.151960e-07
 -1.491837e-06
 -1.345453e-07
 -1.803556e-07
 -2.727970e-07
 1.166867e-06
 1.841969e-07
 9.385074e-07
 1.689116e-05
 -1.366382e-06
 -7.249086e-07
 -4.275286e-07
 1.399131e-07
 1.144960e-06
 -1.759918e-05
 -2.368220e-06
 -2.860586e-07
 1.305021e-06
 -3.980530e-07
 1.767721e-05
 1.439610e-06
 1.784224e-05
 8.095797e-08
 -3.520789e-05
 -1.626646e-07
 1.268064e-07
 0.000000e+00
 0.000000e+00
 -2.879758e-07
 -5.747725e-07
 -1.046700e-06
 -1.404906e-06
 -1.356865e-06
 -1.329160e-06
 1.606809e-05
 -1.056068e-06
 -3.741451e-07
 1.723058e-05
 -9.456019e-07
 -1.763806e-05
 5.277345e-07
 1.781023e-05
 1.315295e-06
 2.791291e-07
 4.532051e-07
 -1.687061e-05
 1.256294e-06
 7.131165e-07
 1.770433e-07
 7.250716e-07
 1.954949e-05
 1.322911e-07
 -1.162723e-06
 -6.920341e-07
 -5.839788e-07
 -1.509704e-06
 1.290679e-07
 -1.606320e-05
 1.871048e-05
 -1.769907e-05
 -1.689127e-06
 -6.671197e-07
 -5.037368e-07
 -4.252780e-07
 -8.102824e-07
 -1.084256e-07
 8.517936e-07
 1.381571e-07
 8.525534e-07
 2.564088e-06
 3.755730e-07
 -1.027061e-06
 -5.234653e-07
 -3.261556e-06
 -2.627578e-06
 2.400746e-06
 1.810433e-06
 0.000000e+00
 0.000000e+00
 -6.835516e-07
 -1.035120e-06
 -1.206477e-06
 -1.189186e-06
 -7.871997e-07
 1.129678e-07
 -9.748266e-07
 -3.289405e-06
 -1.551209e-07
 -6.537077e-08
 -2.547668e-06
 -2.953984e-07
 2.095927e-06
 2.923482e-07
 -2.116388e-06
 -4.970859e-08
 2.710386e-07
 5.579694e-07
 8.390348e-07
 8.190365e-07
 1.117885e-06
 -1.636227e-05
 7.214588e-07
 -1.703484e-05
 -1.023915e-07
 -1.017727e-06
 -4.702008e-07
 -5.119938e-07
 1.674842e-05
 9.791119e-07
 7.040791e-07
 -1.199413e-06
 7.232573e-07
 -2.121029e-07
 -5.855713e-07
 -8.556477e-07
 -5.184039e-07
 7.119430e-08
 3.523944e-07
 -5.390374e-07
 7.902762e-07
 1.584047e-06
 -1.814724e-05
 -2.154919e-07
 2.816661e-07
 -4.488725e-07
 9.287030e-07
 3.520567e-05
 -5.694726e-07
 0.000000e+00
 0.000000e+00
 -1.548332e-06
 -1.610551e-06
 -1.517979e-06
 -1.383361e-06
 -7.344084e-07
 1.043401e-06
 -1.929911e-07
 -1.449366e-06
 1.658580e-05
 -9.217560e-07
 -9.976026e-07
 -4.082245e-07
 3.329517e-07
 3.907210e-07
 1.157009e-07
 1.749762e-05
 6.268390e-08
 4.180287e-07
 7.572271e-07
 1.895805e-05
 -6.555050e-07
 -1.451767e-06
 8.996661e-07
 9.820521e-07
 -1.608352e-05
 3.917691e-07
 1.337751e-07
 -5.076813e-07
 -2.953922e-07
 -6.542754e-07
 -2.353232e-07
 -3.546270e-07
 -1.021703e-07
 9.972216e-07
 -4.848424e-07
 -2.557597e-06
 -6.333599e-07
 8.022714e-07
 7.377231e-07
 1.729190e-06
 1.807044e-05
 1.502063e-06
 5.456263e-07
 1.735712e-05
 -2.321720e-07
 -8.850453e-08
 1.297862e-06
 -1.751829e-05
 -2.334081e-06
 0.000000e+00
 0.000000e+00
 -3.607505e-06
 -2.158423e-06
 -1.674072e-06
 -2.479009e-06
 -1.983807e-06
 4.775943e-07
 -1.653879e-05
 5.173639e-07
 -8.016578e-07
 -2.134926e-06
 -9.822887e-07
 -5.166085e-07
 9.504928e-09
 4.936458e-07
 1.220123e-06
 2.760844e-07
 -1.041365e-06
 2.213687e-07
 1.061537e-06
 1.062391e-07
 -1.963215e-05
 1.358806e-06
 1.946134e-05
 -1.320728e-06
 -4.483518e-07
 2.743902e-06
 7.506080e-07
 8.033411e-07
 1.729863e-05
 -1.218660e-06
 -5.889133e-07
 -5.258907e-07
 -5.131069e-07
 -1.836452e-07
 -1.741577e-05
 -1.985852e-07
 1.605755e-05
 -1.527924e-07
 8.961568e-07
 1.088380e-06
 -1.821839e-05
 -6.037459e-07
 -3.276887e-05
 8.754374e-07
 -1.116820e-06
 -5.883450e-07
 -1.977528e-06
 -2.554189e-07
 1.429790e-06
 0.000000e+00
 0.000000e+00
 -3.822772e-06
 -2.088104e-06
 -1.191776e-06
 -6.773447e-07
 1.673832e-05
 1.616449e-05
 6.664862e-07
 9.251132e-07
 -1.086535e-06
 -9.473034e-07
 -9.214894e-07
 -7.526521e-07
 -2.113887e-07
 5.658529e-07
 8.908450e-07
 5.098262e-07
 4.096686e-08
 9.464313e-09
 1.091705e-07
 -4.308233e-07
 4.207548e-07
 1.952713e-05
 -1.760702e-05
 -1.898679e-05
 -1.566990e-07
 4.141120e-07
 -1.678140e-05
 1.282147e-06
 -1.728498e-05
 -1.331504e-06
 -4.532495e-07
 -5.387012e-07
 -1.745677e-06
 -9.698303e-07
 1.099063e-06
 2.453503e-06
 2.300094e-07
 1.597181e-05
 -1.634739e-06
 -7.344251e-07
 7.373806e-07
 1.763218e-05
 9.837148e-07
 4.260419e-06
 2.842016e-07
 -1.055261e-06
 5.023341e-07
 1.695242e-05
 -9.534154e-07
 0.000000e+00
 0.000000e+00
 -1.253402e-06
 -2.334309e-06
 -5.313130e-07
 1.352892e-06
 4.605727e-07
 -2.107292e-06
 -3.415365e-06
 -1.826637e-05
 2.676343e-07
 -4.552543e-07
 -7.036036e-07
 -1.779609e-06
 -1.326941e-06
 1.091740e-06
 1.521671e-06
 6.855384e-07
 8.902235e-08
 -2.981102e-07
 -2.134907e-07
 4.471630e-07
 2.500989e-06
 -5.243663e-07
 -3.047039e-06
 5.273523e-07
 1.026656e-06
 -6.070204e-07
 3.248569e-07
 1.178255e-06
 6.079611e-07
 1.275249e-06
 1.121252e-07
 -4.104931e-08
 -3.873277e-07
 1.713957e-05
 3.490301e-07
 8.895248e-07
 1.165866e-06
 -1.995740e-07
 -1.654913e-06
 1.698801e-05
 5.725388e-07
 1.100701e-06
 -8.138973e-07
 8.959201e-07
 -1.724913e-05
 -6.891610e-07
 3.687950e-07
 -1.890743e-05
 -1.483576e-06
 0.000000e+00
 0.000000e+00
 -3.251076e-07
 -3.845215e-07
 1.734951e-05
 1.517833e-07
 -1.196741e-07
 1.155307e-07
 -1.898548e-06
 1.591047e-05
 5.731210e-07
 -2.621069e-07
 -2.553315e-07
 -1.299404e-07
 1.744859e-05
 1.758060e-05
 3.420319e-07
 1.403193e-06
 8.739356e-09
 -1.057241e-06
 -1.432100e-06
 2.376261e-07
 2.301564e-06
 -1.739461e-05
 -1.115166e-06
 -4.304639e-08
 2.934640e-07
 -1.079543e-06
 9.322862e-08
 1.181495e-06
 6.190691e-07
 3.767012e-07
 2.296765e-07
 1.360166e-06
 -2.034505e-07
 -6.957547e-07
 -3.763666e-07
 3.521918e-07
 3.887607e-07
 1.382589e-07
 3.737173e-07
 -5.835362e-07
 -1.781579e-06
 -5.414723e-07
 -1.782289e-05
 -7.588429e-07
 -1.728084e-05
 1.397342e-06
 -3.025891e-07
 1.687874e-07
 1.857933e-05
 0.000000e+00
 0.000000e+00
 1.751297e-07
 8.499993e-07
 9.212838e-08
 -1.907429e-07
 -5.536526e-07
 -1.311941e-06
 -1.743112e-05
 -3.367571e-07
 -1.497523e-06
 -4.864336e-07
 2.028238e-08
 1.082806e-06
 9.256381e-07
 -1.287248e-06
 -1.555570e-06
 -2.822862e-07
 -1.750735e-05
 2.581804e-08
 -6.372416e-08
 1.723711e-05
 -8.528768e-07
 -1.742648e-05
 1.397888e-06
 6.340649e-07
 1.736040e-06
 4.211205e-07
 1.701842e-05
 2.579518e-07
 4.179708e-07
 1.667463e-07
 -1.100330e-06
 1.979372e-07
 -1.632027e-05
 1.780730e-05
 -2.472117e-08
 4.662571e-08
 9.281675e-08
 4.210336e-08
 -9.195477e-08
 -5.876107e-07
 -2.133192e-06
 -1.556699e-06
 1.203199e-07
 2.444568e-07
 2.859181e-07
 1.730907e-06
 7.079734e-07
 1.242311e-06
 5.027306e-07
 0.000000e+00
 0.000000e+00
 3.363261e-07
 4.422443e-07
 6.003605e-09
 -4.260084e-07
 -1.810770e-05
 -1.160803e-06
 7.267861e-09
 2.339002e-06
 -2.003072e-07
 -1.136316e-06
 -1.016527e-08
 6.105093e-07
 4.337353e-07
 -2.599274e-07
 -7.322626e-07
 -1.162862e-06
 2.612548e-08
 1.556300e-06
 1.034995e-06
 -3.078033e-07
 -2.381766e-06
 -1.811359e-07
 1.622026e-06
 7.187693e-07
 8.090383e-07
 -1.600613e-05
 5.515159e-07
 -6.892753e-07
 5.140984e-07
 4.256999e-07
 -1.747499e-07
 1.665238e-05
 9.061583e-07
 1.445947e-06
 -9.678327e-07
 -1.357063e-07
 -8.370504e-08
 -7.354824e-08
 -9.899623e-08
 -2.371250e-07
 -5.621228e-07
 1.665034e-05
 -6.847052e-07
 -3.309303e-07
 7.837651e-08
 4.858383e-07
 6.149044e-07
 6.320327e-07
 4.084715e-07
 0.000000e+00
 0.000000e+00
 4.189745e-07
 8.977962e-07
 -2.018477e-07
 -1.063047e-06
 -4.348639e-07
 7.131007e-07
 6.578918e-10
 2.566675e-07
 -1.736612e-05
 -1.129126e-06
 8.782637e-08
 1.166909e-06
 4.833001e-07
 -1.591737e-07
 -5.721203e-07
 -3.812938e-07
 1.900053e-07
 5.225692e-07
 4.023713e-07
 -1.008368e-07
 -4.665217e-07
 -1.117692e-07
 3.240869e-07
 3.062633e-07
 -6.819588e-08
 9.640531e-07
 1.874875e-06
 5.956201e-07
 1.726481e-06
 1.738147e-06
 1.595773e-07
 -9.804803e-07
 -1.153439e-06
 2.666106e-07
 2.017755e-07
 -9.303526e-08
 -2.588746e-07
 -1.685451e-07
 2.361956e-08
 2.501615e-07
 6.199660e-07
 -6.149284e-07
 -1.926476e-06
 -6.532800e-07
 -2.044275e-07
 1.331854e-07
 3.644737e-07
 4.304125e-07
 2.810800e-07
 0.000000e+00
 0.000000e+00
 1.868088e-05
 -5.609873e-08
 -9.803758e-07
 5.613989e-07
 -1.735799e-07
 -6.469739e-07
 -1.627129e-07
 -4.420271e-07
 6.963832e-07
 1.755807e-06
 1.690011e-05
 3.156090e-07
 8.588466e-07
 -2.014571e-07
 -1.542974e-06
 -2.220094e-07
 8.578459e-07
 3.610238e-07
 1.602815e-07
 -3.013008e-08
 -5.524482e-08
 1.204365e-07
 2.254725e-07
 -6.776330e-07
 6.139526e-07
 1.327848e-06
 4.596369e-07
 8.175198e-08
 7.848805e-08
 -1.699398e-05
 -1.692602e-05
 1.465280e-07
 3.147750e-08
 2.912906e-07
 1.386779e-06
 6.389153e-08
 -8.469579e-07
 -2.631559e-07
 -5.340526e-08
 1.329360e-06
 4.411380e-07
 -9.002481e-07
 -9.338717e-07
 -7.348737e-07
 -4.052355e-07
 -1.207697e-07
 2.752030e-07
 4.775515e-07
 2.891200e-07
 0.000000e+00
 0.000000e+00
 -1.928182e-07
 -1.879375e-05
 -3.644814e-07
 -1.237732e-06
 -1.728522e-05
 1.005394e-06
 -7.488588e-07
 4.527203e-07
 1.801546e-06
 2.183911e-06
 9.877724e-07
 1.652582e-05
 -3.868163e-07
 -3.658363e-07
 -3.836237e-07
 1.723033e-05
 3.244425e-09
 1.229213e-07
 -2.961660e-08
 -1.536169e-07
 8.883345e-08
 4.108539e-07
 5.850818e-07
 8.295470e-07
 1.937209e-05
 3.627462e-07
 -8.900361e-07
 -6.407694e-07
 -2.214849e-06
 3.124761e-07
 2.136859e-06
 1.113492e-06
 5.003569e-07
 2.576498e-07
 1.737170e-07
 -1.728501e-05
 1.807715e-07
 5.023511e-08
 -1.133942e-06
 -1.023485e-06
 -1.554674e-05
 7.016509e-07
 -1.194336e-06
 -7.538088e-07
 -3.874513e-07
 -1.040717e-06
 2.956016e-07
 1.080418e-06
 3.092611e-07
 0.000000e+00
 0.000000e+00
 -8.364359e-07
 -3.039440e-09
 1.393326e-06
 -1.510866e-07
 1.813021e-05
 1.968354e-06
 8.314364e-07
 1.813612e-05
 1.035520e-06
 1.606886e-06
 2.938149e-06
 2.185004e-07
 -2.220897e-06
 -5.940604e-07
 1.854623e-07
 -3.495489e-07
 -1.085946e-06
 1.081451e-07
 -7.827543e-08
 -1.236613e-06
 6.433712e-08
 1.024325e-06
 7.078053e-07
 1.706459e-06
 1.099715e-06
 -1.820535e-05
 -1.336588e-06
 -5.517408e-07
 -2.174318e-07
 1.670261e-05
 -1.854142e-05
 7.145717e-07
 1.212541e-06
 6.077364e-08
 -7.490196e-07
 2.834488e-07
 1.701704e-06
 7.180244e-07
 1.363236e-06
 1.669061e-05
 1.658883e-05
 -1.655369e-05
 -2.830350e-07
 -1.454981e-06
 -3.413370e-08
 9.971782e-07
 1.787825e-05
 1.187757e-07
 2.768590e-08
 0.000000e+00
 0.000000e+00
 -5.253698e-08
 5.586126e-07
 1.262044e-06
 1.865636e-06
 1.093486e-06
 1.355365e-07
 1.730689e-06
 -1.434679e-07
 -4.325159e-07
 1.269097e-06
 9.075463e-07
 -1.693201e-05
 -4.940746e-08
 -3.987725e-07
 -1.527854e-06
 -1.336127e-06
 7.757030e-07
 9.471066e-07
 1.236795e-07
 -1.096779e-08
 1.746561e-05
 5.186332e-09
 -7.390873e-07
 9.367396e-07
 2.282525e-06
 9.090349e-07
 1.822097e-06
 1.727069e-05
 -8.889762e-07
 -2.645885e-06
 -1.445100e-06
 1.962244e-05
 3.044340e-07
 -5.633080e-07
 -3.944879e-07
 4.498023e-07
 9.057332e-07
 8.004674e-07
 1.245357e-06
 -1.680936e-05
 -2.062703e-06
 -1.202095e-06
 3.419140e-07
 2.045863e-07
 1.727249e-05
 1.031645e-06
 5.893962e-07
 -1.510079e-06
 -3.905254e-07
 0.000000e+00
 0.000000e+00