<VTKFile type="UnstructuredGrid"  version="0.1"   >
<UnstructuredGrid>  
<Piece  NumberOfPoints="     2601"  NumberOfCells="     5000">  
<Points>  
<DataArray  type="Float64"  NumberOfComponents="3"  format="ascii">  
 0.000000 0.000000 0.000000 
 0.020000 0.000000 0.000000 
 0.040000 0.000000 0.000000 
 0.060000 0.000000 0.000000 
 0.080000 0.000000 0.000000 
 0.100000 0.000000 0.000000 
 0.120000 0.000000 0.000000 
 0.140000 0.000000 0.000000 
 0.160000 0.000000 0.000000 
 0.180000 0.000000 0.000000 
 0.200000 0.000000 0.000000 
 0.220000 0.000000 0.000000 
 0.240000 0.000000 0.000000 
 0.260000 0.000000 0.000000 
 0.280000 0.000000 0.000000 
 0.300000 0.000000 0.000000 
 0.320000 0.000000 0.000000 
 0.340000 0.000000 0.000000 
 0.360000 0.000000 0.000000 
 0.380000 0.000000 0.000000 
 0.400000 0.000000 0.000000 
 0.420000 0.000000 0.000000 
 0.440000 0.000000 0.000000 
 0.460000 0.000000 0.000000 
 0.480000 0.000000 0.000000 
 0.500000 0.000000 0.000000 
 0.520000 0.000000 0.000000 
 0.540000 0.000000 0.000000 
 0.560000 0.000000 0.000000 
 0.580000 0.000000 0.000000 
 0.600000 0.000000 0.000000 
 0.620000 0.000000 0.000000 
 0.640000 0.000000 0.000000 
 0.660000 0.000000 0.000000 
 0.680000 0.000000 0.000000 
 0.700000 0.000000 0.000000 
 0.720000 0.000000 0.000000 
 0.740000 0.000000 0.000000 
 0.760000 0.000000 0.000000 
 0.780000 0.000000 0.000000 
 0.800000 0.000000 0.000000 
 0.820000 0.000000 0.000000 
 0.840000 0.000000 0.000000 
 0.860000 0.000000 0.000000 
 0.880000 0.000000 0.000000 
 0.900000 0.000000 0.000000 
 0.920000 0.000000 0.000000 
 0.940000 0.000000 0.000000 
 0.960000 0.000000 0.000000 
 0.980000 0.000000 0.000000 
 1.000000 0.000000 0.000000 
 0.000000 0.020000 0.000000 
 0.020000 0.020000 0.000000 
 0.040000 0.020000 0.000000 
 0.060000 0.020000 0.000000 
 0.080000 0.020000 0.000000 
 0.100000 0.020000 0.000000 
 0.120000 0.020000 0.000000 
 0.140000 0.020000 0.000000 
 0.160000 0.020000 0.000000 
 0.180000 0.020000 0.000000 
 0.200000 0.020000 0.000000 
 0.220000 0.020000 0.000000 
 0.240000 0.020000 0.000000 
 0.260000 0.020000 0.000000 
 0.280000 0.020000 0.000000 
 0.300000 0.020000 0.000000 
 0.320000 0.020000 0.000000 
 0.340000 0.020000 0.000000 
 0.360000 0.020000 0.000000 
 0.380000 0.020000 0.000000 
 0.400000 0.020000 0.000000 
 0.420000 0.020000 0.000000 
 0.440000 0.020000 0.000000 
 0.460000 0.020000 0.000000 
 0.480000 0.020000 0.000000 
 0.500000 0.020000 0.000000 
 0.520000 0.020000 0.000000 
 0.540000 0.020000 0.000000 
 0.560000 0.020000 0.000000 
 0.580000 0.020000 0.000000 
 0.600000 0.020000 0.000000 
 0.620000 0.020000 0.000000 
 0.640000 0.020000 0.000000 
 0.660000 0.020000 0.000000 
 0.680000 0.020000 0.000000 
 0.700000 0.020000 0.000000 
 0.720000 0.020000 0.000000 
 0.740000 0.020000 0.000000 
 0.760000 0.020000 0.000000 
 0.780000 0.020000 0.000000 
 0.800000 0.020000 0.000000 
 0.820000 0.020000 0.000000 
 0.840000 0.020000 0.000000 
 0.860000 0.020000 0.000000 
 0.880000 0.020000 0.000000 
 0.900000 0.020000 0.000000 
 0.920000 0.020000 0.000000 
 0.940000 0.020000 0.000000 
 0.960000 0.020000 0.000000 
 0.980000 0.020000 0.000000 
 1.000000 0.020000 0.000000 
 0.000000 0.040000 0.000000 
 0.020000 0.040000 0.000000 
 0.040000 0.040000 0.000000 
 0.060000 0.040000 0.000000 
 0.080000 0.040000 0.000000 
 0.100000 0.040000 0.000000 
 0.120000 0.040000 0.000000 
 0.140000 0.040000 0.000000 
 0.160000 0.040000 0.000000 
 0.180000 0.040000 0.000000 
 0.200000 0.040000 0.000000 
 0.220000 0.040000 0.000000 
 0.240000 0.040000 0.000000 
 0.260000 0.040000 0.000000 
 0.280000 0.040000 0.000000 
 0.300000 0.040000 0.000000 
 0.320000 0.040000 0.000000 
 0.340000 0.040000 0.000000 
 0.360000 0.040000 0.000000 
 0.380000 0.040000 0.000000 
 0.400000 0.040000 0.000000 
 0.420000 0.040000 0.000000 
 0.440000 0.040000 0.000000 
 0.460000 0.040000 0.000000 
 0.480000 0.040000 0.000000 
 0.500000 0.040000 0.000000 
 0.520000 0.040000 0.000000 
 0.540000 0.040000 0.000000 
 0.560000 0.040000 0.000000 
 0.580000 0.040000 0.000000 
 0.600000 0.040000 0.000000 
 0.620000 0.040000 0.000000 
 0.640000 0.040000 0.000000 
 0.660000 0.040000 0.000000 
 0.680000 0.040000 0.000000 
 0.700000 0.040000 0.000000 
 0.720000 0.040000 0.000000 
 0.740000 0.040000 0.000000 
 0.760000 0.040000 0.000000 
 0.780000 0.040000 0.000000 
 0.800000 0.040000 0.000000 
 0.820000 0.040000 0.000000 
 0.840000 0.040000 0.000000 
 0.860000 0.040000 0.000000 
 0.880000 0.040000 0.000000 
 0.900000 0.040000 0.000000 
 0.920000 0.040000 0.000000 
 0.940000 0.040000 0.000000 
 0.960000 0.040000 0.000000 
 0.980000 0.040000 0.000000 
 1.000000 0.040000 0.000000 
 0.000000 0.060000 0.000000 
 0.020000 0.060000 0.000000 
 0.040000 0.060000 0.000000 
 0.060000 0.060000 0.000000 
 0.080000 0.060000 0.000000 
 0.100000 0.060000 0.000000 
 0.120000 0.060000 0.000000 
 0.140000 0.060000 0.000000 
 0.160000 0.060000 0.000000 
 0.180000 0.060000 0.000000 
 0.200000 0.060000 0.000000 
 0.220000 0.060000 0.000000 
 0.240000 0.060000 0.000000 
 0.260000 0.060000 0.000000 
 0.280000 0.060000 0.000000 
 0.300000 0.060000 0.000000 
 0.320000 0.060000 0.000000 
 0.340000 0.060000 0.000000 
 0.360000 0.060000 0.000000 
 0.380000 0.060000 0.000000 
 0.400000 0.060000 0.000000 
 0.420000 0.060000 0.000000 
 0.440000 0.060000 0.000000 
 0.460000 0.060000 0.000000 
 0.480000 0.060000 0.000000 
 0.500000 0.060000 0.000000 
 0.520000 0.060000 0.000000 
 0.540000 0.060000 0.000000 
 0.560000 0.060000 0.000000 
 0.580000 0.060000 0.000000 
 0.600000 0.060000 0.000000 
 0.620000 0.060000 0.000000 
 0.640000 0.060000 0.000000 
 0.660000 0.060000 0.000000 
 0.680000 0.060000 0.000000 
 0.700000 0.060000 0.000000 
 0.720000 0.060000 0.000000 
 0.740000 0.060000 0.000000 
 0.760000 0.060000 0.000000 
 0.780000 0.060000 0.000000 
 0.800000 0.060000 0.000000 
 0.820000 0.060000 0.000000 
 0.840000 0.060000 0.000000 
 0.860000 0.060000 0.000000 
 0.880000 0.060000 0.000000 
 0.900000 0.060000 0.000000 
 0.920000 0.060000 0.000000 
 0.940000 0.060000 0.000000 
 0.960000 0.060000 0.000000 
 0.980000 0.060000 0.000000 
 1.000000 0.060000 0.000000 
 0.000000 0.080000 0.000000 
 0.020000 0.080000 0.000000 
 0.040000 0.080000 0.000000 
 0.060000 0.080000 0.000000 
 0.080000 0.080000 0.000000 
 0.100000 0.080000 0.000000 
 0.120000 0.080000 0.000000 
 0.140000 0.080000 0.000000 
 0.160000 0.080000 0.000000 
 0.180000 0.080000 0.000000 
 0.200000 0.080000 0.000000 
 0.220000 0.080000 0.000000 
 0.240000 0.080000 0.000000 
 0.260000 0.080000 0.000000 
 0.280000 0.080000 0.000000 
 0.300000 0.080000 0.000000 
 0.320000 0.080000 0.000000 
 0.340000 0.080000 0.000000 
 0.360000 0.080000 0.000000 
 0.380000 0.080000 0.000000 
 0.400000 0.080000 0.000000 
 0.420000 0.080000 0.000000 
 0.440000 0.080000 0.000000 
 0.460000 0.080000 0.000000 
 0.480000 0.080000 0.000000 
 0.500000 0.080000 0.000000 
 0.520000 0.080000 0.000000 
 0.540000 0.080000 0.000000 
 0.560000 0.080000 0.000000 
 0.580000 0.080000 0.000000 
 0.600000 0.080000 0.000000 
 0.620000 0.080000 0.000000 
 0.640000 0.080000 0.000000 
 0.660000 0.080000 0.000000 
 0.680000 0.080000 0.000000 
 0.700000 0.080000 0.000000 
 0.720000 0.080000 0.000000 
 0.740000 0.080000 0.000000 
 0.760000 0.080000 0.000000 
 0.780000 0.080000 0.000000 
 0.800000 0.080000 0.000000 
 0.820000 0.080000 0.000000 
 0.840000 0.080000 0.000000 
 0.860000 0.080000 0.000000 
 0.880000 0.080000 0.000000 
 0.900000 0.080000 0.000000 
 0.920000 0.080000 0.000000 
 0.940000 0.080000 0.000000 
 0.960000 0.080000 0.000000 
 0.980000 0.080000 0.000000 
 1.000000 0.080000 0.000000 
 0.000000 0.100000 0.000000 
 0.020000 0.100000 0.000000 
 0.040000 0.100000 0.000000 
 0.060000 0.100000 0.000000 
 0.080000 0.100000 0.000000 
 0.100000 0.100000 0.000000 
 0.120000 0.100000 0.000000 
 0.140000 0.100000 0.000000 
 0.160000 0.100000 0.000000 
 0.180000 0.100000 0.000000 
 0.200000 0.100000 0.000000 
 0.220000 0.100000 0.000000 
 0.240000 0.100000 0.000000 
 0.260000 0.100000 0.000000 
 0.280000 0.100000 0.000000 
 0.300000 0.100000 0.000000 
 0.320000 0.100000 0.000000 
 0.340000 0.100000 0.000000 
 0.360000 0.100000 0.000000 
 0.380000 0.100000 0.000000 
 0.400000 0.100000 0.000000 
 0.420000 0.100000 0.000000 
 0.440000 0.100000 0.000000 
 0.460000 0.100000 0.000000 
 0.480000 0.100000 0.000000 
 0.500000 0.100000 0.000000 
 0.520000 0.100000 0.000000 
 0.540000 0.100000 0.000000 
 0.560000 0.100000 0.000000 
 0.580000 0.100000 0.000000 
 0.600000 0.100000 0.000000 
 0.620000 0.100000 0.000000 
 0.640000 0.100000 0.000000 
 0.660000 0.100000 0.000000 
 0.680000 0.100000 0.000000 
 0.700000 0.100000 0.000000 
 0.720000 0.100000 0.000000 
 0.740000 0.100000 0.000000 
 0.760000 0.100000 0.000000 
 0.780000 0.100000 0.000000 
 0.800000 0.100000 0.000000 
 0.820000 0.100000 0.000000 
 0.840000 0.100000 0.000000 
 0.860000 0.100000 0.000000 
 0.880000 0.100000 0.000000 
 0.900000 0.100000 0.000000 
 0.920000 0.100000 0.000000 
 0.940000 0.100000 0.000000 
 0.960000 0.100000 0.000000 
 0.980000 0.100000 0.000000 
 1.000000 0.100000 0.000000 
 0.000000 0.120000 0.000000 
 0.020000 0.120000 0.000000 
 0.040000 0.120000 0.000000 
 0.060000 0.120000 0.000000 
 0.080000 0.120000 0.000000 
 0.100000 0.120000 0.000000 
 0.120000 0.120000 0.000000 
 0.140000 0.120000 0.000000 
 0.160000 0.120000 0.000000 
 0.180000 0.120000 0.000000 
 0.200000 0.120000 0.000000 
 0.220000 0.120000 0.000000 
 0.240000 0.120000 0.000000 
 0.260000 0.120000 0.000000 
 0.280000 0.120000 0.000000 
 0.300000 0.120000 0.000000 
 0.320000 0.120000 0.000000 
 0.340000 0.120000 0.000000 
 0.360000 0.120000 0.000000 
 0.380000 0.120000 0.000000 
 0.400000 0.120000 0.000000 
 0.420000 0.120000 0.000000 
 0.440000 0.120000 0.000000 
 0.460000 0.120000 0.000000 
 0.480000 0.120000 0.000000 
 0.500000 0.120000 0.000000 
 0.520000 0.120000 0.000000 
 0.540000 0.120000 0.000000 
 0.560000 0.120000 0.000000 
 0.580000 0.120000 0.000000 
 0.600000 0.120000 0.000000 
[...]
<PointData  Scalars="U"> 
<DataArray  type="Float64"  Name="U"  format="ascii"> 
 0.000000e+00
 0.000000e+00
 0.000000e+00
 0.000000e+00
 0.000000e+00
 0.000000e+00
 0.000000e+00
 0.000000e+00
 0.000000e+00
 0.000000e+00
 0.000000e+00
 0.000000e+00
 0.000000e+00
 0.000000e+00
 0.000000e+00
 0.000000e+00
 0.000000e+00
 0.000000e+00
 0.000000e+00
 0.000000e+00
 0.000000e+00
 0.000000e+00
 0.000000e+00
 0.000000e+00
 0.000000e+00
 0.000000e+00
 0.000000e+00
 0.000000e+00
 0.000000e+00
 0.000000e+00
 0.000000e+00
 0.000000e+00
 0.000000e+00
 0.000000e+00
 0.000000e+00
 0.000000e+00
 0.000000e+00
 0.000000e+00
 0.000000e+00
 0.000000e+00
 0.000000e+00
 0.000000e+00
 0.000000e+00
 0.000000e+00
 0.000000e+00
 0.000000e+00
 0.000000e+00
 0.000000e+00
 0.000000e+00
 0.000000e+00
 0.000000e+00
 0.000000e+00
 -4.957305e-09
 -9.780848e-09
 -1.438462e-08
 -1.877419e-08
 -2.308240e-08
 -2.758656e-08
 -3.267401e-08
 -3.866374e-08
 -4.530541e-08
 -5.084980e-08
 -5.143978e-08
 -4.317903e-08
 -2.747298e-08
 -1.254056e-08
 -5.577478e-09
 -5.924804e-09
 -7.844697e-09
 -6.598022e-09
 -1.647575e-09
 3.985196e-09
 7.005849e-09
 6.504380e-09
 3.800737e-09
 8.315274e-10
 -9.562677e-10
 -8.297074e-10
 1.398642e-09
 5.518190e-09
 1.085873e-08
 1.603889e-08
 1.891477e-08
 1.736772e-08
 1.073171e-08
 2.518503e-10
 -1.194986e-08
 -2.346662e-08
 -3.151392e-08
 -3.397323e-08
 -3.063211e-08
 -2.266202e-08
 -1.116471e-08
 3.270081e-09
 1.867025e-08
 2.733163e-08
 1.625677e-08
 -1.519626e-08
 -4.265419e-08
 -4.468268e-08
 -2.436870e-08
 0.000000e+00
 0.000000e+00
 -1.005644e-08
 -1.979694e-08
 -2.900505e-08
 -3.765502e-08
 -4.599067e-08
 -5.458724e-08
 -6.436601e-08
 -7.642768e-08
 -9.128035e-08
 -1.065049e-07
 -1.127154e-07
 -9.531380e-08
 -5.395910e-08
 -1.543108e-08
 -2.925847e-09
 -1.055364e-08
 -1.966697e-08
 -1.758110e-08
 -4.000006e-09
 1.108093e-08
 1.794713e-08
 1.528922e-08
 7.757249e-09
 3.528861e-10
 -3.916122e-09
 -3.821031e-09
 8.366035e-10
 9.693518e-09
 2.172362e-08
 3.435834e-08
 4.252683e-08
 4.020320e-08
 2.542888e-08
 2.237279e-09
 -2.446842e-08
 -5.050163e-08
 -6.900243e-08
 -7.400753e-08
 -6.584797e-08
 -4.870181e-08
 -2.539793e-08
 4.566999e-09
 4.250940e-08
 7.639362e-08
 5.884056e-08
 -3.516195e-08
 -1.165283e-07
 -1.122929e-07
 -5.986214e-08
 0.000000e+00
 0.000000e+00
 -1.548834e-08
 -3.037758e-08
 -4.422892e-08
 -5.690634e-08
 -6.869950e-08
 -8.044961e-08
 -9.371755e-08
 -1.109944e-07
 -1.356386e-07
 -1.695926e-07
 -1.999618e-07
 -1.778048e-07
 -7.676812e-08
 1.428637e-08
 2.175341e-08
 -1.510279e-08
 -4.492241e-08
 -4.210648e-08
 -7.721341e-09
 2.819552e-08
 3.947024e-08
 2.887254e-08
 1.118239e-08
 -3.564389e-09
 -1.140220e-08
 -1.145342e-08
 -4.010227e-09
 1.045339e-08
 3.149598e-08
 5.683570e-08
 7.739721e-08
 7.680027e-08
 4.852542e-08
 7.367311e-09
 -3.688019e-08
 -8.514331e-08
 -1.213656e-07
 -1.279109e-07
 -1.097011e-07
 -8.024318e-08
 -4.593381e-08
 -3.390159e-09
 6.180267e-08
 1.772423e-07
 2.074473e-07
 -7.230937e-08
 -3.035154e-07
 -2.238796e-07
 -9.550854e-08
 0.000000e+00
 0.000000e+00
 -2.154665e-08
 -4.204725e-08
 -6.069768e-08
 -7.713263e-08
 -9.156921e-08
 -1.049517e-07
 -1.192423e-07
 -1.381749e-07
 -1.691643e-07
 -2.275385e-07
 -3.401167e-07
 -3.689601e-07
 -8.529071e-08
 1.554158e-07
 8.802319e-08
 -3.148646e-08
 -1.066498e-07
 -1.047230e-07
 -1.202152e-08
 7.652623e-08
 8.456065e-08
 4.820507e-08
 1.059799e-08
 -1.485290e-08
 -2.684758e-08
 -2.659695e-08
 -1.581957e-08
 4.451886e-09
 3.580261e-08
 8.215448e-08
 1.350369e-07
 1.464295e-07
 8.279137e-08
 1.208716e-08
 -4.028428e-08
 -1.313118e-07
 -2.088742e-07
 -2.077674e-07
 -1.631265e-07
 -1.150304e-07
 -7.302307e-08
 -3.129361e-08
 3.153942e-08
 1.947827e-07
 1.250251e-06
 -7.650198e-08
 -9.744895e-07
 -2.975246e-07
 -9.134657e-08
 0.000000e+00
 0.000000e+00
 -2.869274e-08
 -5.564200e-08
 -7.947937e-08
 -9.947509e-08
 -1.156515e-07
 -1.288121e-07
 -1.406725e-07
 -1.545242e-07
 -1.777679e-07
 -2.316962e-07
 -3.951217e-07
 -1.456912e-06
 -1.335187e-07
 7.766076e-07
 1.223432e-07
 -8.743117e-08
 -2.442613e-07
 -2.867822e-07
 -7.314479e-09
 2.331930e-07
 1.703795e-07
 6.262776e-08
 -3.566471e-09
 -3.984848e-08
 -5.462187e-08
 -5.218973e-08
 -3.666351e-08
 -1.192647e-08
 2.417565e-08
 9.157757e-08
 2.330097e-07
 3.195605e-07
 1.129018e-07
 -2.767638e-08
 2.840398e-08
 -1.894297e-07
 -4.014687e-07
 -3.273455e-07
 -2.137843e-07
 -1.418987e-07
 -9.802180e-08
 -7.381111e-08
 -6.897955e-08
 -9.450140e-08
 -9.607761e-08
 -1.759067e-05
 -1.223561e-07
 -7.000510e-08
 9.771472e-09
 0.000000e+00
 0.000000e+00
 -3.764831e-08
 -7.245975e-08
 -1.022309e-07
 -1.257651e-07
 -1.428896e-07
 -1.541958e-07
 -1.606545e-07
 -1.631948e-07
 -1.621829e-07
 -1.561788e-07
 -1.360321e-07
 -1.573949e-07
 1.730984e-05
 -1.430875e-07
 -1.183682e-07
 -1.693031e-07
 -3.207983e-07
 -1.373067e-06
 -4.537656e-08
 8.655905e-07
 2.159706e-07
 3.186066e-08
 -4.608921e-08
 -8.569447e-08
 -9.968801e-08
 -9.099775e-08
 -6.591915e-08
 -3.670759e-08
 -1.361913e-08
 2.627595e-08
 2.118678e-07
 1.373163e-06
 1.661620e-07
 -6.036600e-07
 1.038871e-06
 -1.682926e-07
 -1.054297e-06
 -4.022186e-07
 -2.196554e-07
 -1.425658e-07
 -1.045605e-07
 -9.837249e-08
 -1.435081e-07
 -3.235827e-07
 -1.019549e-06
 -2.317080e-07
 1.036954e-06
 2.181225e-07
 2.300595e-07
 0.000000e+00
 0.000000e+00
 -4.955446e-08
 -9.449649e-08
 -1.313978e-07
 -1.585958e-07
 -1.760093e-07
 -1.844216e-07
 -1.844727e-07
 -1.751886e-07
 -1.507818e-07
 -9.055642e-08
 8.196534e-08
 7.321097e-07
 -1.639189e-07
 -1.463283e-06
 -3.725170e-07
 -1.763333e-07
 -7.990217e-08
 -6.595023e-08
 1.741242e-05
 -4.519025e-08
 -3.140029e-08
 -7.694045e-08
 -1.204742e-07
 -1.561249e-07
 -1.682245e-07
 -1.474429e-07
 -9.948591e-08
 -5.140485e-08
 -5.069963e-08
 -1.528063e-07
 -2.290464e-07
 3.208015e-08
 -1.723894e-05
 9.210087e-08
 -5.339125e-08
 -1.757648e-05
 -1.474005e-07
 -1.818276e-07
 -1.492179e-07
 -1.108886e-07
 -8.227937e-08
 -7.965400e-08
 -1.120341e-07
 -2.103206e-07
 -3.230478e-07
 -2.644814e-07
 -1.075028e-06
 1.747886e-07
 8.962078e-07
 0.000000e+00
 0.000000e+00
 -6.628962e-08
 -1.248917e-07
 -1.705462e-07
 -2.013612e-07
 -2.181151e-07
 -2.227751e-07
 -2.169610e-07
 -2.003861e-07
 -1.686319e-07
 -1.096365e-07
 -5.754476e-09
 6.345005e-08
 -1.556006e-07
 -4.002865e-07
 -3.156230e-07
 -1.099010e-07
 1.546168e-07
 8.547550e-07
 -3.095238e-08
 -1.348912e-06
 -3.009229e-07
 -1.815458e-07
 -2.015289e-07
 -2.513712e-07
 -2.721349e-07
 -2.348626e-07
 -1.368337e-07
 -2.074790e-08
 1.883900e-08
 -1.868477e-07
 -1.511944e-06
 -9.436441e-07
 7.627371e-07
 1.182924e-06
 -7.734657e-07
 -1.029137e-07
 1.147341e-06
 5.312586e-08
 -9.376258e-08
 -6.816319e-08
 -3.088916e-08
 -3.251655e-08
 -1.331228e-08
 9.701830e-10
 7.339290e-10
 6.783078e-08
 1.067129e-07
 1.756263e-05
 4.767057e-08
 0.000000e+00
 0.000000e+00
 -9.116616e-08
 -1.688466e-07
 -2.250000e-07
 -2.583835e-07
 -2.722542e-07
 -2.713014e-07
 -2.595693e-07
 -2.394964e-07
 -2.117863e-07
 -1.770337e-07
 -1.442211e-07
 -1.458403e-07
 -2.044820e-07
 -2.473819e-07
 -2.039246e-07
 -7.894590e-08
 1.234648e-07
 2.598987e-07
 3.532868e-08
 -2.488561e-07
 -2.242433e-07
 -1.697324e-07
 -2.582990e-07
 -3.810187e-07
 -4.371967e-07
 -3.914916e-07
 -2.007329e-07
 7.698329e-08
 3.056253e-07
 3.146874e-07
 -1.046055e-07
 1.709041e-05
 -1.267392e-07
 -1.208960e-07
 -4.310136e-07
 -2.464636e-07
 3.646138e-08
 -7.217944e-08
 -2.089428e-07
 -1.756368e-08
 8.959255e-08
 -3.621065e-08
 9.465424e-08
 2.556446e-07
 2.288487e-07
 3.354287e-07
 9.789333e-07
 8.441161e-08
 -1.201947e-06
 0.000000e+00
 0.000000e+00
 -1.305780e-07
 -2.355749e-07
 -3.029866e-07
 -3.351209e-07
 -3.410768e-07
 -3.303207e-07
 -3.101977e-07
 -2.860773e-07
 -2.628622e-07
 -2.475294e-07
 -2.507312e-07
 -2.732687e-07
 -2.706317e-07
 -2.017181e-07
 -1.641391e-07
 -1.422260e-07
 7.657429e-08
 2.180927e-07
 7.116993e-08
 -5.573597e-08
 -8.831809e-09
 1.470098e-08
 -2.858168e-07
 -5.953779e-07
 -6.919132e-07
 -7.160890e-07
 -3.734248e-07
 2.561088e-07
 6.700717e-07
 1.741668e-06
 9.267554e-07
 -8.162429e-07
 -4.044894e-07
 -4.355208e-07
 -1.094638e-06
 -3.229086e-07
 -9.367747e-08
 -1.714892e-07
 -1.240110e-06
 3.546779e-08
 7.883376e-07
 -9.576333e-07
 8.859617e-08
 8.700595e-07
 2.587446e-07
 2.359059e-07
 2.963072e-07
 8.752906e-08
 -1.376876e-07
 0.000000e+00
 0.000000e+00
 -1.983079e-07
 -3.425176e-07
 -4.173078e-07
 -4.379702e-07
 -4.261877e-07
 -3.983460e-07
 -3.647154e-07
 -3.320792e-07
 -3.069341e-07
 -2.993252e-07
 -3.278385e-07
 -4.209935e-07
 -4.360453e-07
 -1.363615e-07
 8.414700e-08
 -9.652054e-07
 1.199086e-08
 6.371153e-07
 1.203747e-08
 -6.365095e-08
 6.283349e-08
 1.115383e-06
 -2.236110e-07
 -1.197285e-06
 -7.643163e-07
 -1.816548e-06
 -1.492690e-06
 7.761744e-07
 1.077422e-06
 3.769597e-07
 -1.726565e-05
 -1.342847e-07
 -4.080802e-07
 -1.777868e-05
 -1.497624e-07
 -5.656590e-08
 5.152214e-08
 1.273171e-07
 1.391078e-07
 1.765031e-05
 2.990202e-07
 3.044223e-07
 1.745015e-05
 -2.475343e-07
 -1.276032e-07
 2.508517e-09
 6.598425e-08
 3.038465e-08
 -1.938622e-08
 0.000000e+00
 0.000000e+00
 -3.284713e-07
 -5.243155e-07
 -5.862923e-07
 -5.720779e-07
 -5.262715e-07
 -4.715758e-07
 -4.181759e-07
 -3.711391e-07
 -3.348843e-07
 -3.173326e-07
 -3.394878e-07
 -4.764883e-07
 -1.504457e-06
 -1.063238e-07
 1.018425e-06
 1.455666e-06
 1.746005e-05
 -9.592008e-07
 -3.305068e-07
 -2.189165e-07
 -2.057245e-07
 -1.654131e-07
 -1.761268e-05
 -1.378479e-07
 -1.373439e-07
 -1.313171e-07
 1.728937e-05
 1.723520e-05
 -3.666819e-07
 -1.010625e-06
 -1.955398e-07
 8.766133e-07
 -8.923105e-07
 -1.140552e-07
 1.247483e-06
 2.735109e-07
 2.333994e-07
 4.094373e-07
 1.099085e-06
 2.956512e-07
 -7.180165e-07
 2.006689e-06
 -9.671966e-08
 -2.277776e-06
 -5.273067e-07
 -1.592340e-07
 -3.778685e-08
 -1.017002e-08
 -8.967882e-09
 0.000000e+00
 0.000000e+00
 -6.220827e-07
 -8.480843e-07
 -8.271489e-07
 -7.338734e-07
 -6.332831e-07
 -5.427436e-07
 -4.651808e-07
 -3.999048e-07
 -3.457752e-07
 -3.016517e-07
 -2.647087e-07
 -2.223127e-07
 -2.188390e-07
 1.730799e-05
 3.521506e-08
 7.872545e-07
 -1.755347e-05
 -1.411352e-06
 -4.091446e-07
 -3.046837e-07
 -4.257914e-07
 -1.039056e-06
 -8.669744e-08
 1.321546e-06
 4.874064e-07
 1.129710e-06
 7.825010e-07
 -1.543342e-06
 -1.952036e-06
 -8.432628e-07
 -4.581334e-07
 -2.123562e-07
 -2.645710e-07
 -8.051591e-08
 2.240732e-07
 2.636995e-07
 2.589864e-07
 3.597111e-07
 4.610806e-07
 2.899081e-07
 6.198673e-08
 7.497233e-08
 -1.760269e-05
 -3.717545e-07
 -3.021242e-07
 -1.290703e-07
 -5.431534e-08
 -2.861957e-08
 -1.572445e-08
 0.000000e+00
 0.000000e+00
 -1.454159e-06
 -1.394478e-06
 -1.120663e-06
 -8.964572e-07
 -7.283738e-07
 -6.005021e-07
 -4.998834e-07
 -4.175691e-07
 -3.464957e-07
 -2.777180e-07
 -1.900280e-07
 -8.715367e-09
 6.293913e-07
 -2.943598e-07
 -1.646363e-06
 -1.053233e-06
 -1.237245e-07
 9.716957e-07
 -9.903338e-08
 -2.275014e-07
 -3.329947e-07
 -3.741628e-07
 -8.811526e-08
 2.833807e-07
 4.174212e-07
 4.752468e-07
 2.360696e-07
 -3.763411e-07
 -7.828887e-07
 -7.442565e-07
 -5.266070e-07
 -3.400045e-07
 -2.216166e-07
 -8.677729e-08
 5.478027e-08
 1.336635e-07
 1.773910e-07
 2.263113e-07
 2.610849e-07
 2.510573e-07
 4.357305e-08
 -9.087439e-07
 -2.916883e-07
 1.033455e-06
 7.716836e-08
 -1.743092e-09
 -2.381381e-08
 -3.799767e-08
 -2.899286e-08
 0.000000e+00
 0.000000e+00
 -3.507057e-06
 -1.973963e-06
 -1.345799e-06
 -1.001794e-06
 -7.840953e-07
 -6.317142e-07
 -5.166225e-07
 -4.238068e-07
 -3.434408e-07
 -2.665382e-07
 -1.815807e-07
 -7.916538e-08
 -6.072003e-08
 -4.214817e-07
 -7.876581e-07
 -5.342142e-07
 -2.387773e-08
 1.527094e-07
 1.267802e-08
 -1.415854e-07
 -2.145803e-07
 -2.064255e-07
 -8.982237e-08
 6.417130e-08
 1.633021e-07
 1.956540e-07
 1.563073e-07
 -4.481954e-08
 -4.736694e-07
 -7.078032e-07
 -5.590442e-07
 -3.629631e-07
 -2.241708e-07
 -1.144021e-07
 -2.386003e-08
 3.842626e-08
 7.688172e-08
 1.026119e-07
 1.260826e-07
 2.113386e-07
 1.148378e-06
 -2.488051e-07
 -9.280933e-07
 2.778392e-09
 1.693206e-07
 1.124482e-07
 5.327374e-09
 -7.611968e-08
 -6.505737e-08
 0.000000e+00
 0.000000e+00
 -3.692225e-06
 -1.931930e-06
 -1.328495e-06
 -9.934619e-07
 -7.791029e-07
 -6.275431e-07
 -5.118725e-07
 -4.177276e-07
 -3.364438e-07
 -2.626626e-07
 -1.961890e-07
 -1.548354e-07
 -2.030757e-07
 -4.591641e-07
 -1.635311e-06
 -3.302590e-07
 6.678895e-07
 1.169339e-07
 -3.399635e-08
 -1.199448e-07
 -1.682908e-07
 -1.728111e-07
 -1.336038e-07
 -7.696121e-08
 -3.187295e-08
 2.881903e-09
 1.005089e-07
 1.074707e-06
 -3.074284e-07
 -1.222404e-06
 -5.416422e-07
 -3.181574e-07
 -2.038886e-07
 -1.269948e-07
 -7.010473e-08
 -3.189089e-08
 -1.271851e-08
 -1.329222e-08
 -3.745291e-08
 -9.275412e-08
 -1.048223e-07
 -1.755380e-05
 1.253005e-08
 1.346289e-07
 2.869804e-07
 3.025697e-07
 6.730408e-09
 -2.332618e-07
 -1.523595e-07
 0.000000e+00
 0.000000e+00
 -1.159953e-06
 -1.308116e-06
 -1.081260e-06
 -8.762156e-07
 -7.156528e-07
 -5.893214e-07
 -4.864468e-07
 -3.992481e-07
 -3.225576e-07
 -2.537292e-07
 -1.940711e-07
 -1.517490e-07
 -1.396205e-07
 -1.517584e-07
 -2.154427e-07
 1.723800e-05
 -1.903171e-07
 -1.219570e-07
 -1.183868e-07
 -1.342155e-07
 -1.662537e-07
 -1.892311e-07
 -1.953604e-07
 -2.007694e-07
 -2.090443e-07
 -2.172290e-07
 -2.411710e-07
 -2.276600e-07
 -1.769640e-05
 -2.305438e-07
 -2.359642e-07
 -1.892536e-07
 -1.529786e-07
 -1.219464e-07
 -9.751958e-08
 -8.311115e-08
 -8.328735e-08
 -1.059422e-07
 -1.715147e-07
 -3.511531e-07
 -9.963366e-07
 -6.311706e-08
 1.316944e-06
 3.476845e-07
 3.678466e-07
 1.379233e-06
 3.399699e-08
 -8.821493e-07
 -2.239108e-07
 0.000000e+00
 0.000000e+00
 -5.379796e-07
 -7.805109e-07
 -7.890056e-07
 -7.119700e-07
 -6.183311e-07
 -5.281961e-07
 -4.457661e-07
 -3.706375e-07
 -3.014015e-07
 -2.368332e-07
 -1.760522e-07
 -1.162122e-07
 -4.070570e-08
 1.269573e-07
 7.596711e-07
 -1.554541e-07
 -1.466401e-06
 -3.743481e-07
 -1.754936e-07
 -1.277280e-07
 -1.772762e-07
 -2.285350e-07
 -2.536100e-07
 -3.200447e-07
 -3.906582e-07
 -4.246441e-07
 -5.346468e-07
 -1.126924e-06
 -1.858076e-07
 1.152342e-06
 1.003843e-07
 -5.350977e-08
 -9.748549e-08
 -1.106140e-07
 -1.150222e-07
 -1.201540e-07
 -1.329705e-07
 -1.614406e-07
 -2.175628e-07
 -3.143624e-07
 -3.633520e-07
 -1.027056e-07
 2.035541e-07
 1.914882e-07
 7.366036e-08
 4.467750e-08
 -1.744574e-05
 3.052364e-10
 -2.680636e-08
 0.000000e+00
 0.000000e+00
 -2.995221e-07
 -4.915319e-07
 -5.629503e-07
 -5.574846e-07
 -5.153882e-07
 -4.587725e-07
 -3.976689e-07
 -3.361832e-07
 -2.756815e-07
 -2.160301e-07
 -1.555025e-07
 -8.905991e-08
 -4.783622e-09
 1.130894e-07
 1.778083e-07
 -7.471618e-08
 -3.740061e-07
 -3.261689e-07
 -1.108382e-07
 -2.325468e-09
 -2.018376e-07
 -3.223358e-07
 -2.374357e-07
 -4.343604e-07
 -6.414621e-07
 -5.800249e-07
 -5.109689e-07
 -4.531910e-07
 -1.513803e-07
 1.513669e-07
 1.223114e-07
 2.067488e-09
 -6.641474e-08
 -1.065088e-07
 -1.315153e-07
 -1.496657e-07
 -1.676791e-07
 -1.904459e-07
 -2.186457e-07
 -2.398615e-07
 -2.130332e-07
 -1.071578e-07
 -8.061246e-09
 -3.032356e-08
 -2.252675e-07
 -9.050329e-07
 -2.486072e-08
 1.276764e-06
 1.992534e-07
 0.000000e+00
 0.000000e+00
 -1.898155e-07
 -3.326230e-07
 -4.114113e-07
 -4.361691e-07
 -4.250340e-07
 -3.929397e-07
 -3.495478e-07
 -3.005271e-07
 -2.488882e-07
 -1.956202e-07
 -1.397098e-07
 -7.797690e-08
 -6.829304e-09
 6.558139e-08
 8.739834e-08
 -2.268943e-08
 -2.109602e-07
 -2.813136e-07
 -1.084989e-07
 1.016572e-06
 -2.232486e-07
 -9.629834e-07
 7.305851e-07
 -4.515994e-07
 -1.338024e-06
 -6.606844e-07
 -3.861303e-07
 -1.911536e-07
 -3.552837e-08
 6.410464e-08
 6.544648e-08
 6.231046e-09
 -6.146730e-08
 -1.168257e-07
 -1.547223e-07
 -1.790360e-07
 -1.970610e-07
 -2.123805e-07
 -2.207391e-07
 -2.102935e-07
 -1.702370e-07
 -1.108698e-07
 -7.444262e-08
 -1.056581e-07
 -2.192485e-07
 -3.120788e-07
 -1.058822e-07
 1.560934e-07
 1.238763e-07
 0.000000e+00
 0.000000e+00
 -1.333832e-07
 -2.426646e-07
 -3.149112e-07
 -3.499310e-07
 -3.546886e-07
 -3.377490e-07
 -3.066344e-07
 -2.671700e-07
 -2.234006e-07
 -1.774639e-07
 -1.294518e-07
 -7.743597e-08
 -1.766020e-08
 5.617771e-08
 1.569188e-07
 1.429396e-07
 -1.931560e-07
 -4.765973e-07
 -4.593709e-07
 -3.584182e-07
 -1.779321e-05
 -3.494003e-07
 -3.695888e-07
 -1.786244e-05
 -4.998854e-07
 -5.357933e-07
 -2.014836e-07
 1.035647e-07
 1.259002e-07
 9.780835e-08
 6.888828e-08
 1.154544e-08
 -7.053246e-08
 -1.462825e-07
 -1.921287e-07
 -2.139654e-07
 -2.277404e-07
 -2.397984e-07
 -2.413673e-07
 -2.139292e-07
 -1.537573e-07
 -9.197582e-08
 -6.729045e-08
 -9.187691e-08
 -1.489767e-07
 -1.898126e-07
 -1.625666e-07
 -9.257839e-08
 -3.201165e-08
 0.000000e+00
 0.000000e+00
 -1.032592e-07
 -1.920844e-07
 -2.567990e-07
 -2.941225e-07
 -3.058113e-07
 -2.964396e-07
 -2.717784e-07
 -2.378007e-07
 -1.997340e-07
 -1.610393e-07
 -1.228981e-07
 -8.436872e-08
 -4.145174e-08
 2.171740e-08
 1.782073e-07
 1.214875e-06
 -1.529821e-07
 -1.150258e-06
 -7.231123e-07
 -1.272579e-06
 -4.124984e-07
 7.290994e-07
 -9.961231e-07
 -2.967864e-07
 8.262347e-07
 -1.281887e-06
 -7.551609e-08
 8.462203e-07
 2.505358e-07
 1.333099e-07
 1.069013e-07
 4.731384e-08
 -8.757451e-08
 -2.122531e-07
 -2.549253e-07
 -2.548780e-07
 -2.574659e-07
 -2.753506e-07
 -2.933467e-07
 -2.580669e-07
 -1.403207e-07
 -3.006467e-08
 -6.587562e-09
 -3.968485e-08
 -9.081890e-08
 -1.550849e-07
 -2.654743e-07
 -3.252716e-07
 -1.490616e-07
 0.000000e+00
 0.000000e+00
 -8.846853e-08
 -1.667747e-07
 -2.269359e-07
 -2.643938e-07
 -2.781733e-07
 -2.704550e-07
 -2.461213e-07
 -2.122100e-07
 -1.762881e-07
 -1.437211e-07
 -1.163769e-07
 -9.439358e-08
 -7.916807e-08
 -7.546461e-08
 -9.561717e-08
 -8.441726e-08
 -1.757230e-05
 -1.715602e-07
 -3.499928e-07
 -5.268705e-07
 -4.320696e-07
 -2.735857e-07
 -3.633840e-07
 -2.343975e-07
 3.069328e-08
 1.545441e-08
 1.744474e-05
 9.428838e-09
 6.986280e-08
 9.874167e-08
 1.855983e-07
 1.894886e-07
 -1.191206e-07
 -3.878727e-07
 -3.566601e-07
 -2.867062e-07
 -2.687797e-07
 -3.018541e-07
 -3.992641e-07
 -4.151573e-07
 -1.159335e-07
 1.459378e-07
 1.074726e-07
 2.443307e-08
 -2.550129e-08
 -8.213042e-08
 -2.517086e-07
 -1.366438e-06
 -2.316041e-07
 0.000000e+00
 0.000000e+00
 -8.423412e-08
 -1.602141e-07
 -2.203899e-07
 -2.588676e-07
 -2.724794e-07
 -2.614790e-07
 -2.301787e-07
 -1.882182e-07
 -1.487963e-07
 -1.208573e-07
 -1.047477e-07
 -9.823155e-08
 -1.061930e-07
 -1.524668e-07
 -3.177163e-07
 -9.655724e-07
 -5.474436e-08
 1.309841e-06
 2.171258e-07
 -2.358584e-07
 -4.569271e-07
 -3.491952e-07
 -2.773000e-07
 -2.251722e-07
 1.116853e-08
 7.772042e-07
 -2.465663e-09
 -1.234342e-06
 -1.565675e-07
 1.017949e-08
 1.781620e-07
 1.227988e-06
 -1.081669e-07
 -1.035625e-06
 -4.121518e-07
 -2.638217e-07
 -2.330231e-07
 -2.653465e-07
 -4.182820e-07
 -1.471957e-06
 -1.369751e-07
 7.941471e-07
 1.801537e-07
 4.930675e-08
 3.954136e-08
 7.133669e-08
 1.179759e-07
 9.244745e-08
 1.749902e-05
 0.000000e+00
 0.000000e+00
 -8.836256e-08
 -1.697272e-07
 -2.360107e-07
 -2.787884e-07
 -2.920265e-07
 -2.737639e-07
 -2.257512e-07
 -1.608656e-07
 -1.080018e-07
 -8.566742e-08
 -8.474893e-08
 -9.031248e-08
 -1.017501e-07
 -1.372236e-07
 -2.264100e-07
 -2.969559e-07
 -6.845567e-08
 3.106472e-07
 1.315024e-06
 -9.242285e-08
 -9.804169e-07
 -2.555017e-07
 -1.547768e-07
 -4.124021e-07
 -3.642512e-07
 -1.918074e-08
 7.966249e-08
 9.259556e-09
 -5.306427e-08
 -8.599005e-08
 -1.361915e-07
 -1.226300e-07
 -1.758461e-05
 -1.301890e-07
 -1.652553e-07
 -1.528190e-07
 -1.469390e-07
 -1.395346e-07
 -1.211723e-07
 -1.447995e-07
 1.732474e-05
 -1.161442e-07
 -5.856160e-08
 -2.061242e-08
 6.866237e-08
 2.139189e-07
 4.780585e-07
 1.200298e-06
 3.841166e-07
 0.000000e+00
 0.000000e+00
 -9.925036e-08
 -1.941905e-07
 -2.755581e-07
 -3.290872e-07
 -3.433723e-07
 -3.174811e-07
 -2.422962e-07
 -1.194276e-07
 -3.044627e-08
 -2.843061e-08
 -6.120358e-08
 -7.973454e-08
 -7.624478e-08
 -6.467429e-08
 -6.311295e-08
 -8.545132e-08
 -1.199861e-07
 -1.504409e-07
 -1.199915e-07
 -1.755116e-05
 -1.233798e-08
 1.299707e-07
 1.054204e-06
 -1.420475e-06
 -1.210746e-06
 -7.252743e-07
 8.239637e-08
 8.289573e-07
 1.103080e-07