<VTKFile type="UnstructuredGrid"  version="0.1"   >
<UnstructuredGrid>  
<Piece  NumberOfPoints="     2601"  NumberOfCells="     5000">  
<Points>  
<DataArray  type="Float64"  NumberOfComponents="3"  format="ascii">  
 0.000000 0.000000 0.000000 
 0.020000 0.000000 0.000000 
 0.040000 0.000000 0.000000 
 0.060000 0.000000 0.000000 
 0.080000 0.000000 0.000000 
 0.100000 0.000000 0.000000 
 0.120000 0.000000 0.000000 
 0.140000 0.000000 0.000000 
 0.160000 0.000000 0.000000 
 0.180000 0.000000 0.000000 
 0.200000 0.000000 0.000000 
 0.220000 0.000000 0.000000 
 0.240000 0.000000 0.000000 
 0.260000 0.000000 0.000000 
 0.280000 0.000000 0.000000 
 0.300000 0.000000 0.000000 
 0.320000 0.000000 0.000000 
 0.340000 0.000000 0.000000 
 0.360000 0.000000 0.000000 
 0.380000 0.000000 0.000000 
 0.400000 0.000000 0.000000 
 0.420000 0.000000 0.000000 
 0.440000 0.000000 0.000000 
 0.460000 0.000000 0.000000 
 0.480000 0.000000 0.000000 
 0.500000 0.000000 0.000000 
 0.520000 0.000000 0.000000 
 0.540000 0.000000 0.000000 
 0.560000 0.000000 0.000000 
 0.580000 0.000000 0.000000 
 0.600000 0.000000 0.000000 
 0.620000 0.000000 0.000000 
 0.640000 0.000000 0.000000 
 0.660000 0.000000 0.000000 
 0.680000 0.000000 0.000000 
 0.700000 0.000000 0.000000 
 0.720000 0.000000 0.000000 
 0.740000 0.000000 0.000000 
 0.760000 0.000000 0.000000 
 0.780000 0.000000 0.000000 
 0.800000 0.000000 0.000000 
 0.820000 0.000000 0.000000 
 0.840000 0.000000 0.000000 
 0.860000 0.000000 0.000000 
 0.880000 0.000000 0.000000 
 0.900000 0.000000 0.000000 
 0.920000 0.000000 0.000000 
 0.940000 0.000000 0.000000 
 0.960000 0.000000 0.000000 
 0.980000 0.000000 0.000000 
 1.000000 0.000000 0.000000 
 0.000000 0.020000 0.000000 
 0.020000 0.020000 0.000000 
 0.040000 0.020000 0.000000 
 0.060000 0.020000 0.000000 
 0.080000 0.020000 0.000000 
 0.100000 0.020000 0.000000 
 0.120000 0.020000 0.000000 
 0.140000 0.020000 0.000000 
 0.160000 0.020000 0.000000 
 0.180000 0.020000 0.000000 
 0.200000 0.020000 0.000000 
 0.220000 0.020000 0.000000 
 0.240000 0.020000 0.000000 
 0.260000 0.020000 0.000000 
 0.280000 0.020000 0.000000 
 0.300000 0.020000 0.000000 
 0.320000 0.020000 0.000000 
 0.340000 0.020000 0.000000 
 0.360000 0.020000 0.000000 
 0.380000 0.020000 0.000000 
 0.400000 0.020000 0.000000 
 0.420000 0.020000 0.000000 
 0.440000 0.020000 0.000000 
 0.460000 0.020000 0.000000 
 0.480000 0.020000 0.000000 
 0.500000 0.020000 0.000000 
 0.520000 0.020000 0.000000 
 0.540000 0.020000 0.000000 
 0.560000 0.020000 0.000000 
 0.580000 0.020000 0.000000 
 0.600000 0.020000 0.000000 
 0.620000 0.020000 0.000000 
 0.640000 0.020000 0.000000 
 0.660000 0.020000 0.000000 
 0.680000 0.020000 0.000000 
 0.700000 0.020000 0.000000 
 0.720000 0.020000 0.000000 
 0.740000 0.020000 0.000000 
 0.760000 0.020000 0.000000 
 0.780000 0.020000 0.000000 
 0.800000 0.020000 0.000000 
 0.820000 0.020000 0.000000 
 0.840000 0.020000 0.000000 
 0.860000 0.020000 0.000000 
 0.880000 0.020000 0.000000 
 0.900000 0.020000 0.000000 
 0.920000 0.020000 0.000000 
 0.940000 0.020000 0.000000 
 0.960000 0.020000 0.000000 
 0.980000 0.020000 0.000000 
 1.000000 0.020000 0.000000 
 0.000000 0.040000 0.000000 
 0.020000 0.040000 0.000000 
 0.040000 0.040000 0.000000 
 0.060000 0.040000 0.000000 
 0.080000 0.040000 0.000000 
 0.100000 0.040000 0.000000 
 0.120000 0.040000 0.000000 
 0.140000 0.040000 0.000000 
 0.160000 0.040000 0.000000 
 0.180000 0.040000 0.000000 
 0.200000 0.040000 0.000000 
 0.220000 0.040000 0.000000 
 0.240000 0.040000 0.000000 
 0.260000 0.040000 0.000000 
 0.280000 0.040000 0.000000 
 0.300000 0.040000 0.000000 
 0.320000 0.040000 0.000000 
 0.340000 0.040000 0.000000 
 0.360000 0.040000 0.000000 
 0.380000 0.040000 0.000000 
 0.400000 0.040000 0.000000 
 0.420000 0.040000 0.000000 
 0.440000 0.040000 0.000000 
 0.460000 0.040000 0.000000 
 0.480000 0.040000 0.000000 
 0.500000 0.040000 0.000000 
 0.520000 0.040000 0.000000 
 0.540000 0.040000 0.000000 
 0.560000 0.040000 0.000000 
 0.580000 0.040000 0.000000 
 0.600000 0.040000 0.000000 
 0.620000 0.040000 0.000000 
 0.640000 0.040000 0.000000 
 0.660000 0.040000 0.000000 
 0.680000 0.040000 0.000000 
 0.700000 0.040000 0.000000 
 0.720000 0.040000 0.000000 
 0.740000 0.040000 0.000000 
 0.760000 0.040000 0.000000 
 0.780000 0.040000 0.000000 
 0.800000 0.040000 0.000000 
 0.820000 0.040000 0.000000 
 0.840000 0.040000 0.000000 
 0.860000 0.040000 0.000000 
 0.880000 0.040000 0.000000 
 0.900000 0.040000 0.000000 
 0.920000 0.040000 0.000000 
 0.940000 0.040000 0.000000 
 0.960000 0.040000 0.000000 
 0.980000 0.040000 0.000000 
 1.000000 0.040000 0.000000 
 0.000000 0.060000 0.000000 
 0.020000 0.060000 0.000000 
 0.040000 0.060000 0.000000 
 0.060000 0.060000 0.000000 
 0.080000 0.060000 0.000000 
 0.100000 0.060000 0.000000 
 0.120000 0.060000 0.000000 
 0.140000 0.060000 0.000000 
 0.160000 0.060000 0.000000 
 0.180000 0.060000 0.000000 
 0.200000 0.060000 0.000000 
 0.220000 0.060000 0.000000 
 0.240000 0.060000 0.000000 
 0.260000 0.060000 0.000000 
 0.280000 0.060000 0.000000 
 0.300000 0.060000 0.000000 
 0.320000 0.060000 0.000000 
 0.340000 0.060000 0.000000 
 0.360000 0.060000 0.000000 
 0.380000 0.060000 0.000000 
 0.400000 0.060000 0.000000 
 0.420000 0.060000 0.000000 
 0.440000 0.060000 0.000000 
 0.460000 0.060000 0.000000 
 0.480000 0.060000 0.000000 
 0.500000 0.060000 0.000000 
 0.520000 0.060000 0.000000 
 0.540000 0.060000 0.000000 
 0.560000 0.060000 0.000000 
 0.580000 0.060000 0.000000 
 0.600000 0.060000 0.000000 
 0.620000 0.060000 0.000000 
 0.640000 0.060000 0.000000 
 0.660000 0.060000 0.000000 
 0.680000 0.060000 0.000000 
 0.700000 0.060000 0.000000 
 0.720000 0.060000 0.000000 
 0.740000 0.060000 0.000000 
 0.760000 0.060000 0.000000 
 0.780000 0.060000 0.000000 
 0.800000 0.060000 0.000000 
 0.820000 0.060000 0.000000 
 0.840000 0.060000 0.000000 
 0.860000 0.060000 0.000000 
 0.880000 0.060000 0.000000 
 0.900000 0.060000 0.000000 
 0.920000 0.060000 0.000000 
 0.940000 0.060000 0.000000 
 0.960000 0.060000 0.000000 
 0.980000 0.060000 0.000000 
 1.000000 0.060000 0.000000 
 0.000000 0.080000 0.000000 
 0.020000 0.080000 0.000000 
 0.040000 0.080000 0.000000 
 0.060000 0.080000 0.000000 
 0.080000 0.080000 0.000000 
 0.100000 0.080000 0.000000 
 0.120000 0.080000 0.000000 
 0.140000 0.080000 0.000000 
 0.160000 0.080000 0.000000 
 0.180000 0.080000 0.000000 
 0.200000 0.080000 0.000000 
 0.220000 0.080000 0.000000 
 0.240000 0.080000 0.000000 
 0.260000 0.080000 0.000000 
 0.280000 0.080000 0.000000 
 0.300000 0.080000 0.000000 
 0.320000 0.080000 0.000000 
 0.340000 0.080000 0.000000 
 0.360000 0.080000 0.000000 
 0.380000 0.080000 0.000000 
 0.400000 0.080000 0.000000 
 0.420000 0.080000 0.000000 
 0.440000 0.080000 0.000000 
 0.460000 0.080000 0.000000 
 0.480000 0.080000 0.000000 
 0.500000 0.080000 0.000000 
 0.520000 0.080000 0.000000 
 0.540000 0.080000 0.000000 
 0.560000 0.080000 0.000000 
 0.580000 0.080000 0.000000 
 0.600000 0.080000 0.000000 
 0.620000 0.080000 0.000000 
 0.640000 0.080000 0.000000 
 0.660000 0.080000 0.000000 
 0.680000 0.080000 0.000000 
 0.700000 0.080000 0.000000 
 0.720000 0.080000 0.000000 
 0.740000 0.080000 0.000000 
 0.760000 0.080000 0.000000 
 0.780000 0.080000 0.000000 
 0.800000 0.080000 0.000000 
 0.820000 0.080000 0.000000 
 0.840000 0.080000 0.000000 
 0.860000 0.080000 0.000000 
 0.880000 0.080000 0.000000 
 0.900000 0.080000 0.000000 
 0.920000 0.080000 0.000000 
 0.940000 0.080000 0.000000 
 0.960000 0.080000 0.000000 
 0.980000 0.080000 0.000000 
 1.000000 0.080000 0.000000 
 0.000000 0.100000 0.000000 
 0.020000 0.100000 0.000000 
 0.040000 0.100000 0.000000 
 0.060000 0.100000 0.000000 
 0.080000 0.100000 0.000000 
 0.100000 0.100000 0.000000 
 0.120000 0.100000 0.000000 
 0.140000 0.100000 0.000000 
 0.160000 0.100000 0.000000 
 0.180000 0.100000 0.000000 
 0.200000 0.100000 0.000000 
 0.220000 0.100000 0.000000 
 0.240000 0.100000 0.000000 
 0.260000 0.100000 0.000000 
 0.280000 0.100000 0.000000 
 0.300000 0.100000 0.000000 
 0.320000 0.100000 0.000000 
 0.340000 0.100000 0.000000 
 0.360000 0.100000 0.000000 
 0.380000 0.100000 0.000000 
 0.400000 0.100000 0.000000 
 0.420000 0.100000 0.000000 
 0.440000 0.100000 0.000000 
 0.460000 0.100000 0.000000 
 0.480000 0.100000 0.000000 
 0.500000 0.100000 0.000000 
 0.520000 0.100000 0.000000 
 0.540000 0.100000 0.000000 
 0.560000 0.100000 0.000000 
 0.580000 0.100000 0.000000 
 0.600000 0.100000 0.000000 
 0.620000 0.100000 0.000000 
 0.640000 0.100000 0.000000 
 0.660000 0.100000 0.000000 
 0.680000 0.100000 0.000000 
 0.700000 0.100000 0.000000 
 0.720000 0.100000 0.000000 
 0.740000 0.100000 0.000000 
 0.760000 0.100000 0.000000 
 0.780000 0.100000 0.000000 
 0.800000 0.100000 0.000000 
 0.820000 0.100000 0.000000 
 0.840000 0.100000 0.000000 
 0.860000 0.100000 0.000000 
 0.880000 0.100000 0.000000 
 0.900000 0.100000 0.000000 
 0.920000 0.100000 0.000000 
 0.940000 0.100000 0.000000 
 0.960000 0.100000 0.000000 
 0.980000 0.100000 0.000000 
 1.000000 0.100000 0.000000 
 0.000000 0.120000 0.000000 
 0.020000 0.120000 0.000000 
 0.040000 0.120000 0.000000 
 0.060000 0.120000 0.000000 
 0.080000 0.120000 0.000000 
 0.100000 0.120000 0.000000 
 0.120000 0.120000 0.000000 
 0.140000 0.120000 0.000000 
 0.160000 0.120000 0.000000 
 0.180000 0.120000 0.000000 
 0.200000 0.120000 0.000000 
 0.220000 0.120000 0.000000 
 0.240000 0.120000 0.000000 
 0.260000 0.120000 0.000000 
 0.280000 0.120000 0.000000 
 0.300000 0.120000 0.000000 
 0.320000 0.120000 0.000000 
 0.340000 0.120000 0.000000 
 0.360000 0.120000 0.000000 
 0.380000 0.120000 0.000000 
 0.400000 0.120000 0.000000 
 0.420000 0.120000 0.000000 
 0.440000 0.120000 0.000000 
 0.460000 0.120000 0.000000 
 0.480000 0.120000 0.000000 
 0.500000 0.120000 0.000000 
 0.520000 0.120000 0.000000 
 0.540000 0.120000 0.000000 
 0.560000 0.120000 0.000000 
 0.580000 0.120000 0.000000 
 0.600000 0.120000 0.000000 
[...]
<PointData  Scalars="U"> 
<DataArray  type="Float64"  Name="U"  format="ascii"> 
 0.000000e+00
 0.000000e+00
 0.000000e+00
 0.000000e+00
 0.000000e+00
 0.000000e+00
 0.000000e+00
 0.000000e+00
 0.000000e+00
 0.000000e+00
 0.000000e+00
 0.000000e+00
 0.000000e+00
 0.000000e+00
 0.000000e+00
 0.000000e+00
 0.000000e+00
 0.000000e+00
 0.000000e+00
 0.000000e+00
 0.000000e+00
 0.000000e+00
 0.000000e+00
 0.000000e+00
 0.000000e+00
 0.000000e+00
 0.000000e+00
 0.000000e+00
 0.000000e+00
 0.000000e+00
 0.000000e+00
 0.000000e+00
 0.000000e+00
 0.000000e+00
 0.000000e+00
 0.000000e+00
 0.000000e+00
 0.000000e+00
 0.000000e+00
 0.000000e+00
 0.000000e+00
 0.000000e+00
 0.000000e+00
 0.000000e+00
 0.000000e+00
 0.000000e+00
 0.000000e+00
 0.000000e+00
 0.000000e+00
 0.000000e+00
 0.000000e+00
 0.000000e+00
 4.257925e-11
 8.745897e-11
 1.366590e-10
 1.916764e-10
 2.533151e-10
 3.216062e-10
 3.958266e-10
 4.746040e-10
 5.560883e-10
 6.381550e-10
 7.186136e-10
 7.953892e-10
 8.666632e-10
 9.309624e-10
 9.871993e-10
 1.034673e-09
 1.073038e-09
 1.102260e-09
 1.122558e-09
 1.134349e-09
 1.138191e-09
 1.134738e-09
 1.124694e-09
 1.108776e-09
 1.087688e-09
 1.062093e-09
 1.032599e-09
 9.997536e-10
 9.640329e-10
 9.258495e-10
 8.855561e-10
 8.434553e-10
 7.998096e-10
 7.548528e-10
 7.087999e-10
 6.618549e-10
 6.142163e-10
 5.660796e-10
 5.176361e-10
 4.690700e-10
 4.205520e-10
 3.722324e-10
 3.242328e-10
 2.766381e-10
 2.294873e-10
 1.827583e-10
 1.363223e-10
 8.974639e-11
 4.120691e-11
 0.000000e+00
 0.000000e+00
 8.281013e-11
 1.705085e-10
 2.673823e-10
 3.766001e-10
 4.998496e-10
 6.371733e-10
 7.870152e-10
 9.464557e-10
 1.111584e-09
 1.277939e-09
 1.440954e-09
 1.596339e-09
 1.740367e-09
 1.870052e-09
 1.983222e-09
 2.078505e-09
 2.155262e-09
 2.213477e-09
 2.253648e-09
 2.276661e-09
 2.283685e-09
 2.276069e-09
 2.255258e-09
 2.222717e-09
 2.179873e-09
 2.128072e-09
 2.068540e-09
 2.002371e-09
 1.930519e-09
 1.853800e-09
 1.772913e-09
 1.688451e-09
 1.600927e-09
 1.510800e-09
 1.418491e-09
 1.324403e-09
 1.228930e-09
 1.132465e-09
 1.035393e-09
 9.380885e-10
 8.409010e-10
 7.441387e-10
 6.480531e-10
 5.528227e-10
 4.585379e-10
 3.651868e-10
 2.726414e-10
 1.806757e-10
 8.946661e-11
 0.000000e+00
 0.000000e+00
 1.180501e-10
 2.441920e-10
 3.855090e-10
 5.472119e-10
 7.320382e-10
 9.399910e-10
 1.168438e-09
 1.412528e-09
 1.665836e-09
 1.921112e-09
 2.171022e-09
 2.408772e-09
 2.628551e-09
 2.825792e-09
 2.997254e-09
 3.140970e-09
 3.256111e-09
 3.342804e-09
 3.401942e-09
 3.434993e-09
 3.443835e-09
 3.430599e-09
 3.397545e-09
 3.346945e-09
 3.280998e-09
 3.201759e-09
 3.111094e-09
 3.010649e-09
 2.901849e-09
 2.785904e-09
 2.663832e-09
 2.536498e-09
 2.404642e-09
 2.268926e-09
 2.129960e-09
 1.988335e-09
 1.844636e-09
 1.699454e-09
 1.553378e-09
 1.406984e-09
 1.260815e-09
 1.115356e-09
 9.710036e-10
 8.280448e-10
 6.866350e-10
 5.467885e-10
 4.083880e-10
 2.712439e-10
 1.352029e-10
 0.000000e+00
 0.000000e+00
 1.450263e-10
 3.023806e-10
 4.828278e-10
 6.942345e-10
 9.406517e-10
 1.221938e-09
 1.533953e-09
 1.869247e-09
 2.218108e-09
 2.569744e-09
 2.913422e-09
 3.239388e-09
 3.539497e-09
 3.807526e-09
 4.039223e-09
 4.232170e-09
 4.385535e-09
 4.499782e-09
 4.576389e-09
 4.617577e-09
 4.626082e-09
 4.604950e-09
 4.557364e-09
 4.486495e-09
 4.395381e-09
 4.286837e-09
 4.163390e-09
 4.027247e-09
 3.880294e-09
 3.724106e-09
 3.559994e-09
 3.389052e-09
 3.212210e-09
 3.030298e-09
 2.844089e-09
 2.654341e-09
 2.461827e-09
 2.267336e-09
 2.071675e-09
 1.875644e-09
 1.680006e-09
 1.485447e-09
 1.292539e-09
 1.101694e-09
 9.131456e-10
 7.269289e-10
 5.428897e-10
 3.607146e-10
 1.799563e-10
 0.000000e+00
 0.000000e+00
 1.594076e-10
 3.369812e-10
 5.485357e-10
 8.055314e-10
 1.113715e-09
 1.472596e-09
 1.875805e-09
 2.312222e-09
 2.767621e-09
 3.226508e-09
 3.673809e-09
 4.096188e-09
 4.482858e-09
 4.825900e-09
 5.120208e-09
 5.363168e-09
 5.554243e-09
 5.694525e-09
 5.786340e-09
 5.832895e-09
 5.837988e-09
 5.805753e-09
 5.740444e-09
 5.646252e-09
 5.527146e-09
 5.386763e-09
 5.228325e-09
 5.054606e-09
 4.867927e-09
 4.670196e-09
 4.462961e-09
 4.247487e-09
 4.024841e-09
 3.795965e-09
 3.561757e-09
 3.323119e-09
 3.080996e-09
 2.836387e-09
 2.590335e-09
 2.343898e-09
 2.098097e-09
 1.853864e-09
 1.611978e-09
 1.373013e-09
 1.137292e-09
 9.048651e-10
 6.755073e-10
 4.487415e-10
 2.238677e-10
 0.000000e+00
 0.000000e+00
 1.552210e-10
 3.368570e-10
 5.678262e-10
 8.645754e-10
 1.235079e-09
 1.678120e-09
 2.183927e-09
 2.736006e-09
 3.313729e-09
 3.895161e-09
 4.459557e-09
 4.989189e-09
 5.470319e-09
 5.893429e-09
 6.252886e-09
 6.546324e-09
 6.773946e-09
 6.937881e-09
 7.041647e-09
 7.089731e-09
 7.087241e-09
 7.039617e-09
 6.952371e-09
 6.830865e-09
 6.680119e-09
 6.504668e-09
 6.308467e-09
 6.094853e-09
 5.866552e-09
 5.625742e-09
 5.374132e-09
 5.113077e-09
 4.843692e-09
 4.566967e-09
 4.283863e-09
 3.995392e-09
 3.702659e-09
 3.406883e-09
 3.109377e-09
 2.811500e-09
 2.514595e-09
 2.219898e-09
 1.928455e-09
 1.641043e-09
 1.358099e-09
 1.079689e-09
 8.054961e-10
 5.348446e-10
 2.667510e-10
 0.000000e+00
 0.000000e+00
 1.240219e-10
 2.862933e-10
 5.198882e-10
 8.482931e-10
 1.282448e-09
 1.819734e-09
 2.445085e-09
 3.133935e-09
 3.856349e-09
 4.581375e-09
 5.280759e-09
 5.931407e-09
 6.516457e-09
 7.025157e-09
 7.452008e-09
 7.795612e-09
 8.057566e-09
 8.241564e-09
 8.352738e-09
 8.397194e-09
 8.381640e-09
 8.313076e-09
 8.198499e-09
 8.044635e-09
 7.857698e-09
 7.643218e-09
 7.405920e-09
 7.149692e-09
 6.877610e-09
 6.592028e-09
 6.294708e-09
 5.986975e-09
 5.669880e-09
 5.344356e-09
 5.011354e-09
 4.671945e-09
 4.327382e-09
 3.979119e-09
 3.628785e-09
 3.278114e-09
 2.928852e-09
 2.582631e-09
 2.240846e-09
 1.904540e-09
 1.574307e-09
 1.250235e-09
 9.318914e-10
 6.183505e-10
 3.082696e-10
 0.000000e+00
 0.000000e+00
 5.368893e-11
 1.627671e-10
 3.749932e-10
 7.239407e-10
 1.224555e-09
 1.871669e-09
 2.641840e-09
 3.498152e-09
 4.396841e-09
 5.294133e-09
 6.151767e-09
 6.940265e-09
 7.639828e-09
 8.239415e-09
 8.734869e-09
 9.126894e-09
 9.419379e-09
 9.618227e-09
 9.730648e-09
 9.764716e-09
 9.729050e-09
 9.632502e-09
 9.483829e-09
 9.291359e-09
 9.062686e-09
 8.804444e-09
 8.522168e-09
 8.220264e-09
 7.902068e-09
 7.569979e-09
 7.225653e-09
 6.870217e-09
 6.504501e-09
 6.129244e-09
 5.745284e-09
 5.353687e-09
 4.955835e-09
 4.553446e-09
 4.148531e-09
 3.743302e-09
 3.340028e-09
 2.940867e-09
 2.547683e-09
 2.161880e-09
 1.784266e-09
 1.414971e-09
 1.053413e-09
 6.983443e-10
 3.479495e-10
 0.000000e+00
 0.000000e+00
 -7.333491e-11
 -6.633080e-11
 9.018801e-11
 4.444729e-10
 1.017032e-09
 1.798248e-09
 2.751306e-09
 3.820029e-09
 4.939716e-09
 6.048082e-09
 7.093575e-09
 8.039543e-09
 8.864327e-09
 9.558605e-09
 1.012167e-08
 1.055804e-08
 1.087504e-08
 1.108146e-08
 1.118700e-08
 1.120201e-08
 1.113732e-08
 1.100398e-08
 1.081283e-08
 1.057412e-08
 1.029706e-08
 9.989511e-09
 9.657862e-09
 9.306971e-09
 8.940294e-09
 8.560081e-09
 8.167657e-09
 7.763726e-09
 7.348678e-09
 6.922877e-09
 6.486904e-09
 6.041741e-09
 5.588877e-09
 5.130332e-09
 4.668601e-09
 4.206515e-09
 3.747044e-09
 3.293050e-09
 2.847038e-09
 2.410914e-09
 1.985788e-09
 1.571855e-09
 1.168349e-09
 7.735947e-10
 3.851472e-10
 0.000000e+00
 0.000000e+00
 -2.825964e-10
 -4.485124e-10
 -3.971332e-10
 -5.844413e-11
 5.961755e-10
 1.549671e-09
 2.743682e-09
 4.091425e-09
 5.495825e-09
 6.867505e-09
 8.137487e-09
 9.262087e-09
 1.022076e-08
 1.100984e-08
 1.163561e-08
 1.210879e-08
 1.244141e-08
 1.264568e-08
 1.273397e-08
 1.271904e-08
 1.261423e-08
 1.243315e-08
 1.218923e-08
 1.189502e-08
 1.156166e-08
 1.119842e-08
 1.081256e-08
 1.040926e-08
 9.991899e-09
 9.562288e-09
 9.121117e-09
 8.668349e-09
 8.203646e-09
 7.726749e-09
 7.237801e-09
 6.737588e-09
 6.227681e-09
 5.710463e-09
 5.189050e-09
 4.667098e-09
 4.148520e-09
 3.637149e-09
 3.136372e-09
 2.648793e-09
 2.175955e-09
 1.718158e-09
 1.274401e-09
 8.424439e-10
 4.189947e-10
 0.000000e+00
 0.000000e+00
 -6.112545e-10
 -1.053190e-09
 -1.178846e-09
 -8.851560e-10
 -1.306937e-10
 1.055684e-09
 2.580618e-09
 4.307605e-09
 6.088289e-09
 7.793049e-09
 9.330752e-09
 1.065339e-08
 1.174837e-08
 1.262507e-08
 1.330231e-08
 1.380008e-08
 1.413613e-08
 1.432598e-08
 1.438425e-08
 1.432602e-08
 1.416736e-08
 1.392503e-08
 1.361566e-08
 1.325475e-08
 1.285578e-08
 1.242963e-08
 1.198437e-08
 1.152537e-08
 1.105556e-08
 1.057594e-08
 1.008612e-08
 9.584923e-09
 9.070877e-09
 8.542782e-09
 8.000097e-09
 7.443270e-09
 6.873920e-09
 6.294881e-09
 5.710083e-09
 5.124293e-09
 4.542716e-09
 3.970521e-09
 3.412328e-09
 2.871721e-09
 2.350859e-09
 1.850213e-09
 1.368477e-09
 9.026555e-10
 4.483199e-10
 0.000000e+00
 0.000000e+00
 -1.112971e-09
 -1.981551e-09
 -2.390433e-09
 -2.184774e-09
 -1.300695e-09
 2.156440e-10
 2.213549e-09
 4.473543e-09
 6.763548e-09
 8.893202e-09
 1.074513e-08
 1.227600e-08
 1.349568e-08
 1.443982e-08
 1.514803e-08
 1.565267e-08
 1.597692e-08
 1.613795e-08
 1.615123e-08
 1.603357e-08
 1.580414e-08
 1.548374e-08
 1.509329e-08
 1.465212e-08
 1.417660e-08
 1.367947e-08
 1.316953e-08
 1.265196e-08
 1.212879e-08
 1.159964e-08
 1.106248e-08
 1.051438e-08
 9.952274e-09
 9.373571e-09
 8.776734e-09
 8.161680e-09
 7.530036e-09
 6.885199e-09
 6.232186e-09
 5.577269e-09
 4.927437e-09
 4.289718e-09
 3.670455e-09
 3.074619e-09
 2.505247e-09
 1.963071e-09
 1.446394e-09
 9.512054e-10
 4.715369e-10
 0.000000e+00
 0.000000e+00
 -1.863832e-09
 -3.379674e-09
 -4.232020e-09
 -4.181872e-09
 -3.121302e-09
 -1.118061e-09
 1.582350e-09
 4.617137e-09
 7.612244e-09
 1.028406e-08
 1.248960e-08
 1.421388e-08
 1.551888e-08
 1.648903e-08
 1.719563e-08
 1.768462e-08
 1.798070e-08
 1.809796e-08
 1.804958e-08
 1.785320e-08
 1.753190e-08
 1.711223e-08
 1.662115e-08
 1.608318e-08
 1.551839e-08
 1.494150e-08
 1.436181e-08
 1.378374e-08
 1.320773e-08
 1.263122e-08
 1.204975e-08
 1.145794e-08
 1.085044e-08
 1.022274e-08
 9.571879e-09
 8.896980e-09
 8.199620e-09
 7.483910e-09
 6.756314e-09
 6.025168e-09
 5.299930e-09
 4.590226e-09
 3.904827e-09
 3.250664e-09
 2.632026e-09
 2.050039e-09
 1.502489e-09
 9.839954e-10
 4.864964e-10
 0.000000e+00
 0.000000e+00
 -2.967715e-09
 -5.453649e-09
 -6.998152e-09
 -7.219907e-09
 -5.916140e-09
 -3.169932e-09
 6.150336e-10
 4.817112e-09
 8.809604e-09
 1.216363e-08
 1.472820e-08
 1.657417e-08
 1.787402e-08
 1.879710e-08
 1.945715e-08
 1.990775e-08
 2.016326e-08
 2.022449e-08
 2.009692e-08
 1.979836e-08
 1.935808e-08
 1.881168e-08
 1.819515e-08
 1.754015e-08
 1.687135e-08
 1.620550e-08
 1.555178e-08
 1.491298e-08
 1.428685e-08
 1.366760e-08
 1.304735e-08
 1.241733e-08
 1.176907e-08
 1.109543e-08
 1.039147e-08
 9.655175e-09
 8.887956e-09
 8.094825e-09
 7.284183e-09
 6.467193e-09
 5.656743e-09
 4.866117e-09
 4.107515e-09
 3.390648e-09
 2.721586e-09
 2.102031e-09
 1.529076e-09
 9.954636e-10
 4.902824e-10
 0.000000e+00
 0.000000e+00
 -4.556009e-09
 -8.480657e-09
 -1.111634e-08
 -1.183316e-08
 -1.021116e-08
 -6.300486e-09
 -7.699149e-10
 5.263621e-09
 1.069598e-08
 1.487141e-08
 1.770165e-08
 1.947839e-08
 2.059528e-08
 2.135745e-08
 2.192151e-08
 2.232397e-08
 2.254122e-08
 2.254210e-08
 2.231729e-08
 2.188630e-08
 2.129039e-08
 2.058050e-08
 1.980639e-08
 1.900957e-08
 1.822010e-08
 1.745627e-08
 1.672601e-08
 1.602896e-08
 1.535872e-08
 1.470486e-08
 1.405478e-08
 1.339518e-08
 1.271346e-08
 1.199894e-08
 1.124398e-08
 1.044490e-08
 9.602781e-09
 8.723722e-09
 7.818698e-09
 6.902746e-09
 5.993551e-09
 5.109561e-09
 4.267850e-09
 3.482082e-09
 2.760857e-09
 2.106688e-09
 1.515702e-09
 9.780570e-10
 4.789391e-10
 0.000000e+00
 0.000000e+00
 -6.768954e-09
 -1.279723e-08
 -1.718542e-08
 -1.886645e-08
 -1.690811e-08
 -1.113540e-08
 -2.654840e-09
 6.396610e-09
 1.394347e-08
 1.898985e-08
 2.174242e-08
 2.302371e-08
 2.364400e-08
 2.409514e-08
 2.453776e-08
 2.492486e-08
 2.513986e-08
 2.509058e-08
 2.474757e-08
 2.414074e-08
 2.333638e-08
 2.241204e-08
 2.143834e-08
 2.046963e-08
 1.954145e-08
 1.867210e-08
 1.786603e-08
 1.711749e-08
 1.641383e-08
 1.573824e-08
 1.507184e-08
 1.439547e-08
 1.369116e-08
 1.294358e-08
 1.214138e-08
 1.127853e-08
 1.035537e-08
 9.379280e-09
 8.364599e-09
 7.331673e-09
 6.304925e-09
 5.310145e-09
 4.371381e-09
 3.507939e-09
 2.731989e-09
 2.047148e-09
 1.448147e-09
 9.215268e-10
 4.471083e-10
 0.000000e+00
 0.000000e+00
 -9.692182e-09
 -1.871675e-08
 -2.597291e-08
 -2.966605e-08
 -2.765773e-08
 -1.887945e-08
 -5.097723e-09
 9.245232e-09
 1.991391e-08
 2.550372e-08
 2.724144e-08
 2.716833e-08
 2.680316e-08
 2.680668e-08
 2.719936e-08
 2.770358e-08
 2.801441e-08
 2.794322e-08
 2.744774e-08
 2.659436e-08
 2.550095e-08
 2.429002e-08
 2.306206e-08
 2.188625e-08
 2.080164e-08
 1.982297e-08
 1.894739e-08
 1.816044e-08
 1.744056e-08
 1.676238e-08
 1.609908e-08
 1.542413e-08
 1.471280e-08
 1.394372e-08
 1.310052e-08
 1.217366e-08
 1.116208e-08
 1.007445e-08
 8.929446e-09
 7.754663e-09
 6.584036e-09
 5.453904e-09
 4.398375e-09
 3.444845e-09
 2.610504e-09
 1.900379e-09
 1.307079e-09
 8.120013e-10
 3.875610e-10
 0.000000e+00
 0.000000e+00
 -1.320761e-08
 -2.627316e-08
 -3.823101e-08
 -4.632451e-08
 -4.571001e-08
 -3.217384e-08
 -8.057195e-09
 1.634317e-08
 3.144933e-08
 3.598157e-08
 3.443209e-08
 3.144750e-08
 2.948473e-08
 2.908195e-08
 2.974869e-08
 3.069839e-08
 3.129723e-08
 3.123873e-08
 3.051398e-08
 2.928817e-08
 2.777889e-08
 2.617951e-08
 2.462849e-08
 2.320761e-08
 2.195301e-08
 2.086883e-08
 1.993898e-08
 1.913573e-08
 1.842535e-08
 1.777170e-08
 1.713828e-08
 1.648972e-08
 1.579302e-08
 1.501910e-08
 1.414475e-08
 1.315515e-08
 1.204655e-08
 1.082854e-08
 9.525163e-09
 8.173917e-09
 6.822278e-09
 5.521912e-09
 4.321621e-09
 3.260489e-09
 2.362691e-09
 1.634886e-09
 1.066276e-09
 6.308036e-10
 2.906126e-10
 0.000000e+00
 0.000000e+00
 -1.673584e-08
 -3.463076e-08
 -5.391776e-08
 -7.165325e-08
 -7.790046e-08
 -5.777528e-08
 -1.113310e-08
 3.451154e-08
 5.458469e-08
 5.243274e-08
 4.261979e-08
 3.437584e-08
 3.044170e-08
 3.024650e-08
 3.204839e-08
 3.410458e-08
 3.528946e-08
 3.522919e-08
 3.408854e-08
 3.226009e-08
 3.013695e-08
 2.801089e-08
 2.605713e-08
 2.435743e-08
 2.293067e-08
 2.175850e-08
 2.080304e-08
 2.001775e-08
 1.935339e-08
 1.876097e-08
 1.819301e-08
 1.760409e-08
 1.695145e-08
 1.619630e-08
 1.530608e-08
 1.425792e-08
 1.304289e-08
 1.167031e-08
 1.017048e-08
 8.594304e-09
 7.008761e-09
 5.488175e-09
 4.103151e-09
 2.909799e-09
 1.941917e-09
 1.207621e-09
 6.903576e-10
 3.530175e-10
 1.434440e-10
 0.000000e+00
 0.000000e+00
 -1.898638e-08
 -4.114467e-08
 -6.990445e-08
 -1.069350e-07
 -1.389087e-07
 -1.163868e-07
 -1.245287e-08
 8.465066e-08
 1.015099e-07
 7.510445e-08
 4.810154e-08
 3.249339e-08
 2.748892e-08
 2.942716e-08
 3.421088e-08
 3.851771e-08
 4.061889e-08
 4.033491e-08
 3.834716e-08
 3.550738e-08
 3.247757e-08
 2.965423e-08
 2.722144e-08
 2.522834e-08
 2.365067e-08
 2.243014e-08
 2.149658e-08
 2.077894e-08
 2.020975e-08
 1.972612e-08
 1.926914e-08
 1.878279e-08
 1.821338e-08
 1.751015e-08
 1.662768e-08
 1.553061e-08
 1.420037e-08
 1.264291e-08
 1.089492e-08
 9.025359e-09
 7.129659e-09
 5.316373e-09
 3.689157e-09
 2.329232e-09
 1.283358e-09
 5.598577e-10
 1.320107e-10
 -5.409594e-11
 -7.058709e-11
 0.000000e+00
 0.000000e+00
 -1.814793e-08
 -4.098308e-08
 -7.607322e-08
 -1.385394e-07
 -2.547855e-07
 -2.861753e-07
 -2.668465e-09
 2.425325e-07
 1.878260e-07
 9.205771e-08
 4.065097e-08
 1.969014e-08
 1.752963e-08
 2.589831e-08
 3.714510e-08
 4.541477e-08
 4.847482e-08
 4.716160e-08
 4.341795e-08
 3.889720e-08
 3.457598e-08
 3.088514e-08
 2.793447e-08
 2.567862e-08
 2.401184e-08
 2.281483e-08
 2.197491e-08
 2.139249e-08
 2.098120e-08
 2.066510e-08
 2.037500e-08
 2.004500e-08
 1.960996e-08
 1.900483e-08
 1.816666e-08
 1.704061e-08
 1.559033e-08
 1.381162e-08
 1.174557e-08
 9.484884e-09
 7.167311e-09
 4.954597e-09
 3.001889e-09
 1.427993e-09
 2.964592e-10
 -3.881164e-10
 -6.710711e-10
 -6.325002e-10
 -3.724128e-10
 0.000000e+00
 0.000000e+00
 -1.304911e-08
 -2.973968e-08
 -5.729960e-08
 -1.167389e-07
 -2.865447e-07
 -1.354976e-06
 -3.700015e-08
 8.723928e-07
 2.297884e-07
 6.081877e-08
 4.153578e-09
 -1.140899e-08
 -3.001332e-09
 1.977697e-08
 4.375230e-08
 5.807512e-08
 6.086234e-08
 5.633827e-08
 4.913980e-08
 4.199539e-08
 3.599273e-08
 3.135208e-08
 2.794392e-08
 2.553829e-08
 2.390469e-08
 2.284481e-08
 2.219799e-08
 2.183666e-08
 2.165859e-08
 2.157860e-08
 2.152085e-08
 2.141216e-08
 2.117689e-08
 2.073377e-08
 1.999650e-08
 1.888021e-08
 1.731645e-08
 1.527664e-08
 1.279883e-08
 1.000558e-08
 7.098979e-09
 4.326428e-09
 1.926140e-09
 7.419388e-11
 -1.145890e-09
 -1.743481e-09
 -1.798868e-09
 -1.433810e-09
 -7.870004e-10
 0.000000e+00
 0.000000e+00
 -4.779579e-09
 -9.330440e-09
 -1.314399e-08
 -1.435606e-08
 -3.815714e-09
 -3.722698e-08
 1.741621e-05
 -4.962594e-08
 -2.962173e-08
 -5.486059e-08
 -6.703607e-08
 -6.591438e-08
 -3.903642e-08
 1.285455e-08
 6.188578e-08
 8.334653e-08
 8.049300e-08
 6.779901e-08
 5.452858e-08
 4.381738e-08
 3.599686e-08
 3.057365e-08
 2.695245e-08
 2.463193e-08
 2.323032e-08
 2.246731e-08
 2.213980e-08
 2.210039e-08
 2.223942e-08
 2.247028e-08
 2.271715e-08
 2.290490e-08
 2.295065e-08
 2.275685e-08
 2.220782e-08
 2.117382e-08
 1.952993e-08
 1.719441e-08
 1.418169e-08
 1.064780e-08
 6.895024e-09
 3.314938e-09
 2.857107e-10
 -1.927603e-09
 -3.222744e-09
 -3.647787e-09
 -3.349611e-09
 -2.517060e-09
 -1.341389e-09
 0.000000e+00
 0.000000e+00
 3.294031e-09
 1.049020e-08
 2.913810e-08
 8.050047e-08
 2.403775e-07
 8.725677e-07
 -4.797577e-08
 -1.378509e-06
 -3.258783e-07
 -1.781647e-07
 -1.492606e-07
 -1.484384e-07
 -1.064997e-07
 9.585261e-09
 1.139933e-07
 1.344917e-07
 1.085404e-07
 7.876169e-08
 5.695154e-08
 4.264526e-08
 3.359921e-08
 2.801263e-08
 2.468109e-08
 2.282364e-08
 2.193013e-08
 2.166348e-08
 2.179974e-08
 2.218943e-08
 2.273017e-08
 2.334602e-08
 2.397122e-08
 2.453714e-08
 2.496071e-08
 2.513244e-08
 2.490429e-08
 2.408404e-08
 2.245123e-08
 1.981415e-08
 1.611198e-08
 1.152526e-08
 6.516045e-09
 1.732156e-09
 -2.199677e-09
 -4.873758e-09
 -6.186244e-09
 -6.281742e-09
 -5.434431e-09
 -3.940596e-09
 -2.059284e-09
 0.000000e+00
 0.000000e+00
 7.947128e-09
 2.058005e-08
 4.505351e-08
 9.426778e-08
 1.842062e-07
 2.310303e-07
 -2.339721e-08
 -3.178379e-07
 -3.014306e-07
 -2.110043e-07
 -2.011900e-07
 -2.741168e-07
 -2.783398e-07
 2.210116e-08
 2.773985e-07
 2.281181e-07
 1.340633e-07
 8.030618e-08
 5.176023e-08
 3.632527e-08
 2.784584e-08
 2.326560e-08
 2.097913e-08
 2.007921e-08
 2.002139e-08
 2.046887e-08
 2.121395e-08
 2.213168e-08
 2.314742e-08
 2.421191e-08
 2.528217e-08
 2.630734e-08
 2.721609e-08
 2.789995e-08
 2.818697e-08
 2.781015e-08
 2.639813e-08
 2.354120e-08
 1.897801e-08
 1.285980e-08
 5.907996e-09
 -7.433866e-10
 -5.997296e-09
 -9.224738e-09
 -1.038778e-08
 -9.860662e-09
 -8.158202e-09
 -5.742517e-09
 -2.949541e-09
 0.000000e+00
 0.000000e+00
 8.290822e-09
 1.979276e-08
 3.774362e-08
 6.336846e-08
 8.558187e-08
 6.265764e-08
 -4.151426e-08
 -1.528037e-07
 -1.834941e-07
 -1.662754e-07
 -1.732109e-07
 -3.005505e-07
 -1.339291e-06
 -2.835230e-09
 9.172522e-07
 2.808687e-07
 1.152870e-07
 5.813802e-08
 3.445152e-08
 2.352158e-08
 1.841154e-08
 1.633081e-08
 1.594663e-08
 1.652540e-08
 1.762808e-08
 1.899010e-08
 2.046370e-08
 2.198000e-08
 2.351684e-08
 2.507062e-08
 2.663494e-08
 2.818808e-08
 2.968602e-08
 3.104800e-08
 3.211400e-08
 3.256131e-08
 3.181170e-08
 2.904598e-08
 2.350408e-08
 1.510652e-08
 4.992719e-09
 -4.704726e-09
 -1.192934e-08
 -1.571104e-08
 -1.630000e-08
 -1.460246e-08
 -1.157182e-08
 -7.901518e-09
 -3.985375e-09
 0.000000e+00
 0.000000e+00
 5.467389e-09
 1.240726e-08
 2.130020e-08
 2.955765e-08
 2.820566e-08
 3.029651e-09
 -4.837235e-08
 -9.884498e-08
 -1.161083e-07
 -9.572346e-08
 -5.304801e-08
 8.828419e-10
 -2.157120e-09
 1.746752e-05
 9.406855e-09
 3.461860e-08
 1.540148e-08
 8.810571e-09
 6.114407e-09
 5.451414e-09
 6.152156e-09
 7.786969e-09
 9.996061e-09
 1.247531e-08
 1.499449e-08
 1.741277e-08
 1.967843e-08
 2.181069e-08
 2.386857e-08
 2.591604e-08
 2.799533e-08
 3.011870e-08