<VTKFile type="UnstructuredGrid"  version="0.1"   >
<UnstructuredGrid>  
<Piece  NumberOfPoints="     2601"  NumberOfCells="     5000">  
<Points>  
<DataArray  type="Float64"  NumberOfComponents="3"  format="ascii">  
 0.000000 0.000000 0.000000 
 0.020000 0.000000 0.000000 
 0.040000 0.000000 0.000000 
 0.060000 0.000000 0.000000 
 0.080000 0.000000 0.000000 
 0.100000 0.000000 0.000000 
 0.120000 0.000000 0.000000 
 0.140000 0.000000 0.000000 
 0.160000 0.000000 0.000000 
 0.180000 0.000000 0.000000 
 0.200000 0.000000 0.000000 
 0.220000 0.000000 0.000000 
 0.240000 0.000000 0.000000 
 0.260000 0.000000 0.000000 
 0.280000 0.000000 0.000000 
 0.300000 0.000000 0.000000 
 0.320000 0.000000 0.000000 
 0.340000 0.000000 0.000000 
 0.360000 0.000000 0.000000 
 0.380000 0.000000 0.000000 
 0.400000 0.000000 0.000000 
 0.420000 0.000000 0.000000 
 0.440000 0.000000 0.000000 
 0.460000 0.000000 0.000000 
 0.480000 0.000000 0.000000 
 0.500000 0.000000 0.000000 
 0.520000 0.000000 0.000000 
 0.540000 0.000000 0.000000 
 0.560000 0.000000 0.000000 
 0.580000 0.000000 0.000000 
 0.600000 0.000000 0.000000 
 0.620000 0.000000 0.000000 
 0.640000 0.000000 0.000000 
 0.660000 0.000000 0.000000 
 0.680000 0.000000 0.000000 
 0.700000 0.000000 0.000000 
 0.720000 0.000000 0.000000 
 0.740000 0.000000 0.000000 
 0.760000 0.000000 0.000000 
 0.780000 0.000000 0.000000 
 0.800000 0.000000 0.000000 
 0.820000 0.000000 0.000000 
 0.840000 0.000000 0.000000 
 0.860000 0.000000 0.000000 
 0.880000 0.000000 0.000000 
 0.900000 0.000000 0.000000 
 0.920000 0.000000 0.000000 
 0.940000 0.000000 0.000000 
 0.960000 0.000000 0.000000 
 0.980000 0.000000 0.000000 
 1.000000 0.000000 0.000000 
 0.000000 0.020000 0.000000 
 0.020000 0.020000 0.000000 
 0.040000 0.020000 0.000000 
 0.060000 0.020000 0.000000 
 0.080000 0.020000 0.000000 
 0.100000 0.020000 0.000000 
 0.120000 0.020000 0.000000 
 0.140000 0.020000 0.000000 
 0.160000 0.020000 0.000000 
 0.180000 0.020000 0.000000 
 0.200000 0.020000 0.000000 
 0.220000 0.020000 0.000000 
 0.240000 0.020000 0.000000 
 0.260000 0.020000 0.000000 
 0.280000 0.020000 0.000000 
 0.300000 0.020000 0.000000 
 0.320000 0.020000 0.000000 
 0.340000 0.020000 0.000000 
 0.360000 0.020000 0.000000 
 0.380000 0.020000 0.000000 
 0.400000 0.020000 0.000000 
 0.420000 0.020000 0.000000 
 0.440000 0.020000 0.000000 
 0.460000 0.020000 0.000000 
 0.480000 0.020000 0.000000 
 0.500000 0.020000 0.000000 
 0.520000 0.020000 0.000000 
 0.540000 0.020000 0.000000 
 0.560000 0.020000 0.000000 
 0.580000 0.020000 0.000000 
 0.600000 0.020000 0.000000 
 0.620000 0.020000 0.000000 
 0.640000 0.020000 0.000000 
 0.660000 0.020000 0.000000 
 0.680000 0.020000 0.000000 
 0.700000 0.020000 0.000000 
 0.720000 0.020000 0.000000 
 0.740000 0.020000 0.000000 
 0.760000 0.020000 0.000000 
 0.780000 0.020000 0.000000 
 0.800000 0.020000 0.000000 
 0.820000 0.020000 0.000000 
 0.840000 0.020000 0.000000 
 0.860000 0.020000 0.000000 
 0.880000 0.020000 0.000000 
 0.900000 0.020000 0.000000 
 0.920000 0.020000 0.000000 
 0.940000 0.020000 0.000000 
 0.960000 0.020000 0.000000 
 0.980000 0.020000 0.000000 
 1.000000 0.020000 0.000000 
 0.000000 0.040000 0.000000 
 0.020000 0.040000 0.000000 
 0.040000 0.040000 0.000000 
 0.060000 0.040000 0.000000 
 0.080000 0.040000 0.000000 
 0.100000 0.040000 0.000000 
 0.120000 0.040000 0.000000 
 0.140000 0.040000 0.000000 
 0.160000 0.040000 0.000000 
 0.180000 0.040000 0.000000 
 0.200000 0.040000 0.000000 
 0.220000 0.040000 0.000000 
 0.240000 0.040000 0.000000 
 0.260000 0.040000 0.000000 
 0.280000 0.040000 0.000000 
 0.300000 0.040000 0.000000 
 0.320000 0.040000 0.000000 
 0.340000 0.040000 0.000000 
 0.360000 0.040000 0.000000 
 0.380000 0.040000 0.000000 
 0.400000 0.040000 0.000000 
 0.420000 0.040000 0.000000 
 0.440000 0.040000 0.000000 
 0.460000 0.040000 0.000000 
 0.480000 0.040000 0.000000 
 0.500000 0.040000 0.000000 
 0.520000 0.040000 0.000000 
 0.540000 0.040000 0.000000 
 0.560000 0.040000 0.000000 
 0.580000 0.040000 0.000000 
 0.600000 0.040000 0.000000 
 0.620000 0.040000 0.000000 
 0.640000 0.040000 0.000000 
 0.660000 0.040000 0.000000 
 0.680000 0.040000 0.000000 
 0.700000 0.040000 0.000000 
 0.720000 0.040000 0.000000 
 0.740000 0.040000 0.000000 
 0.760000 0.040000 0.000000 
 0.780000 0.040000 0.000000 
 0.800000 0.040000 0.000000 
 0.820000 0.040000 0.000000 
 0.840000 0.040000 0.000000 
 0.860000 0.040000 0.000000 
 0.880000 0.040000 0.000000 
 0.900000 0.040000 0.000000 
 0.920000 0.040000 0.000000 
 0.940000 0.040000 0.000000 
 0.960000 0.040000 0.000000 
 0.980000 0.040000 0.000000 
 1.000000 0.040000 0.000000 
 0.000000 0.060000 0.000000 
 0.020000 0.060000 0.000000 
 0.040000 0.060000 0.000000 
 0.060000 0.060000 0.000000 
 0.080000 0.060000 0.000000 
 0.100000 0.060000 0.000000 
 0.120000 0.060000 0.000000 
 0.140000 0.060000 0.000000 
 0.160000 0.060000 0.000000 
 0.180000 0.060000 0.000000 
 0.200000 0.060000 0.000000 
 0.220000 0.060000 0.000000 
 0.240000 0.060000 0.000000 
 0.260000 0.060000 0.000000 
 0.280000 0.060000 0.000000 
 0.300000 0.060000 0.000000 
 0.320000 0.060000 0.000000 
 0.340000 0.060000 0.000000 
 0.360000 0.060000 0.000000 
 0.380000 0.060000 0.000000 
 0.400000 0.060000 0.000000 
 0.420000 0.060000 0.000000 
 0.440000 0.060000 0.000000 
 0.460000 0.060000 0.000000 
 0.480000 0.060000 0.000000 
 0.500000 0.060000 0.000000 
 0.520000 0.060000 0.000000 
 0.540000 0.060000 0.000000 
 0.560000 0.060000 0.000000 
 0.580000 0.060000 0.000000 
 0.600000 0.060000 0.000000 
 0.620000 0.060000 0.000000 
 0.640000 0.060000 0.000000 
 0.660000 0.060000 0.000000 
 0.680000 0.060000 0.000000 
 0.700000 0.060000 0.000000 
 0.720000 0.060000 0.000000 
 0.740000 0.060000 0.000000 
 0.760000 0.060000 0.000000 
 0.780000 0.060000 0.000000 
 0.800000 0.060000 0.000000 
 0.820000 0.060000 0.000000 
 0.840000 0.060000 0.000000 
 0.860000 0.060000 0.000000 
 0.880000 0.060000 0.000000 
 0.900000 0.060000 0.000000 
 0.920000 0.060000 0.000000 
 0.940000 0.060000 0.000000 
 0.960000 0.060000 0.000000 
 0.980000 0.060000 0.000000 
 1.000000 0.060000 0.000000 
 0.000000 0.080000 0.000000 
 0.020000 0.080000 0.000000 
 0.040000 0.080000 0.000000 
 0.060000 0.080000 0.000000 
 0.080000 0.080000 0.000000 
 0.100000 0.080000 0.000000 
 0.120000 0.080000 0.000000 
 0.140000 0.080000 0.000000 
 0.160000 0.080000 0.000000 
 0.180000 0.080000 0.000000 
 0.200000 0.080000 0.000000 
 0.220000 0.080000 0.000000 
 0.240000 0.080000 0.000000 
 0.260000 0.080000 0.000000 
 0.280000 0.080000 0.000000 
 0.300000 0.080000 0.000000 
 0.320000 0.080000 0.000000 
 0.340000 0.080000 0.000000 
 0.360000 0.080000 0.000000 
 0.380000 0.080000 0.000000 
 0.400000 0.080000 0.000000 
 0.420000 0.080000 0.000000 
 0.440000 0.080000 0.000000 
 0.460000 0.080000 0.000000 
 0.480000 0.080000 0.000000 
 0.500000 0.080000 0.000000 
 0.520000 0.080000 0.000000 
 0.540000 0.080000 0.000000 
 0.560000 0.080000 0.000000 
 0.580000 0.080000 0.000000 
 0.600000 0.080000 0.000000 
 0.620000 0.080000 0.000000 
 0.640000 0.080000 0.000000 
 0.660000 0.080000 0.000000 
 0.680000 0.080000 0.000000 
 0.700000 0.080000 0.000000 
 0.720000 0.080000 0.000000 
 0.740000 0.080000 0.000000 
 0.760000 0.080000 0.000000 
 0.780000 0.080000 0.000000 
 0.800000 0.080000 0.000000 
 0.820000 0.080000 0.000000 
 0.840000 0.080000 0.000000 
 0.860000 0.080000 0.000000 
 0.880000 0.080000 0.000000 
 0.900000 0.080000 0.000000 
 0.920000 0.080000 0.000000 
 0.940000 0.080000 0.000000 
 0.960000 0.080000 0.000000 
 0.980000 0.080000 0.000000 
 1.000000 0.080000 0.000000 
 0.000000 0.100000 0.000000 
 0.020000 0.100000 0.000000 
 0.040000 0.100000 0.000000 
 0.060000 0.100000 0.000000 
 0.080000 0.100000 0.000000 
 0.100000 0.100000 0.000000 
 0.120000 0.100000 0.000000 
 0.140000 0.100000 0.000000 
 0.160000 0.100000 0.000000 
 0.180000 0.100000 0.000000 
 0.200000 0.100000 0.000000 
 0.220000 0.100000 0.000000 
 0.240000 0.100000 0.000000 
 0.260000 0.100000 0.000000 
 0.280000 0.100000 0.000000 
 0.300000 0.100000 0.000000 
 0.320000 0.100000 0.000000 
 0.340000 0.100000 0.000000 
 0.360000 0.100000 0.000000 
 0.380000 0.100000 0.000000 
 0.400000 0.100000 0.000000 
 0.420000 0.100000 0.000000 
 0.440000 0.100000 0.000000 
 0.460000 0.100000 0.000000 
 0.480000 0.100000 0.000000 
 0.500000 0.100000 0.000000 
 0.520000 0.100000 0.000000 
 0.540000 0.100000 0.000000 
 0.560000 0.100000 0.000000 
 0.580000 0.100000 0.000000 
 0.600000 0.100000 0.000000 
 0.620000 0.100000 0.000000 
 0.640000 0.100000 0.000000 
 0.660000 0.100000 0.000000 
 0.680000 0.100000 0.000000 
 0.700000 0.100000 0.000000 
 0.720000 0.100000 0.000000 
 0.740000 0.100000 0.000000 
 0.760000 0.100000 0.000000 
 0.780000 0.100000 0.000000 
 0.800000 0.100000 0.000000 
 0.820000 0.100000 0.000000 
 0.840000 0.100000 0.000000 
 0.860000 0.100000 0.000000 
 0.880000 0.100000 0.000000 
 0.900000 0.100000 0.000000 
 0.920000 0.100000 0.000000 
 0.940000 0.100000 0.000000 
 0.960000 0.100000 0.000000 
 0.980000 0.100000 0.000000 
 1.000000 0.100000 0.000000 
 0.000000 0.120000 0.000000 
 0.020000 0.120000 0.000000 
 0.040000 0.120000 0.000000 
 0.060000 0.120000 0.000000 
 0.080000 0.120000 0.000000 
 0.100000 0.120000 0.000000 
 0.120000 0.120000 0.000000 
 0.140000 0.120000 0.000000 
 0.160000 0.120000 0.000000 
 0.180000 0.120000 0.000000 
 0.200000 0.120000 0.000000 
 0.220000 0.120000 0.000000 
 0.240000 0.120000 0.000000 
 0.260000 0.120000 0.000000 
 0.280000 0.120000 0.000000 
 0.300000 0.120000 0.000000 
 0.320000 0.120000 0.000000 
 0.340000 0.120000 0.000000 
 0.360000 0.120000 0.000000 
 0.380000 0.120000 0.000000 
 0.400000 0.120000 0.000000 
 0.420000 0.120000 0.000000 
 0.440000 0.120000 0.000000 
 0.460000 0.120000 0.000000 
 0.480000 0.120000 0.000000 
 0.500000 0.120000 0.000000 
 0.520000 0.120000 0.000000 
 0.540000 0.120000 0.000000 
 0.560000 0.120000 0.000000 
 0.580000 0.120000 0.000000 
 0.600000 0.120000 0.000000 
[...]
<PointData  Scalars="U"> 
<DataArray  type="Float64"  Name="U"  format="ascii"> 
 0.000000e+00
 0.000000e+00
 0.000000e+00
 0.000000e+00
 0.000000e+00
 0.000000e+00
 0.000000e+00
 0.000000e+00
 0.000000e+00
 0.000000e+00
 0.000000e+00
 0.000000e+00
 0.000000e+00
 0.000000e+00
 0.000000e+00
 0.000000e+00
 0.000000e+00
 0.000000e+00
 0.000000e+00
 0.000000e+00
 0.000000e+00
 0.000000e+00
 0.000000e+00
 0.000000e+00
 0.000000e+00
 0.000000e+00
 0.000000e+00
 0.000000e+00
 0.000000e+00
 0.000000e+00
 0.000000e+00
 0.000000e+00
 0.000000e+00
 0.000000e+00
 0.000000e+00
 0.000000e+00
 0.000000e+00
 0.000000e+00
 0.000000e+00
 0.000000e+00
 0.000000e+00
 0.000000e+00
 0.000000e+00
 0.000000e+00
 0.000000e+00
 0.000000e+00
 0.000000e+00
 0.000000e+00
 0.000000e+00
 0.000000e+00
 0.000000e+00
 0.000000e+00
 -2.047019e-08
 -4.001276e-08
 -5.546656e-08
 -5.847872e-08
 -3.767015e-08
 4.272220e-09
 4.117863e-08
 5.320242e-08
 4.695019e-08
 3.618885e-08
 2.717217e-08
 2.033008e-08
 1.457271e-08
 9.079918e-09
 3.859626e-09
 3.342415e-10
 1.629622e-09
 1.039418e-08
 2.355601e-08
 3.069600e-08
 2.108127e-08
 -9.115251e-09
 -4.705428e-08
 -4.431543e-08
 2.934563e-08
 9.593130e-08
 9.147120e-08
 5.415648e-08
 2.196841e-08
 2.009489e-09
 -8.716273e-09
 -1.312738e-08
 -1.286570e-08
 -9.220709e-09
 -4.040840e-09
 2.951226e-10
 1.901574e-09
 3.865567e-10
 -3.159092e-09
 -7.049519e-09
 -9.924224e-09
 -1.114100e-08
 -1.069146e-08
 -8.959527e-09
 -6.525156e-09
 -4.017723e-09
 -1.967767e-09
 -6.681547e-10
 -1.012271e-10
 0.000000e+00
 0.000000e+00
 -4.154393e-08
 -8.317704e-08
 -1.222562e-07
 -1.431635e-07
 -1.021175e-07
 1.505657e-08
 1.133017e-07
 1.254106e-07
 9.658910e-08
 6.967176e-08
 5.201149e-08
 3.964988e-08
 2.901110e-08
 1.811989e-08
 6.378369e-09
 -4.097469e-09
 -5.260656e-09
 1.481887e-08
 5.312616e-08
 7.943605e-08
 6.450054e-08
 -2.135913e-09
 -1.343698e-07
 -1.877476e-07
 6.988633e-08
 2.886514e-07
 2.108669e-07
 9.695396e-08
 3.068837e-08
 -5.003102e-09
 -2.349475e-08
 -3.087179e-08
 -2.923777e-08
 -2.009885e-08
 -7.154805e-09
 3.603620e-09
 7.199844e-09
 2.901763e-09
 -6.045693e-09
 -1.524897e-08
 -2.161553e-08
 -2.401133e-08
 -2.269641e-08
 -1.863019e-08
 -1.310690e-08
 -7.536335e-09
 -3.130537e-09
 -5.533516e-10
 2.568254e-10
 0.000000e+00
 0.000000e+00
 -6.218369e-08
 -1.275422e-07
 -2.000002e-07
 -2.918609e-07
 -2.712795e-07
 5.194261e-08
 2.993064e-07
 2.328090e-07
 1.371672e-07
 9.278272e-08
 7.185696e-08
 5.752511e-08
 4.388468e-08
 2.837822e-08
 8.690279e-09
 -1.651429e-08
 -3.587957e-08
 -5.313050e-09
 9.528472e-08
 1.743635e-07
 1.580540e-07
 6.832482e-08
 -1.321603e-07
 -1.225898e-06
 6.703992e-08
 9.495185e-07
 2.803590e-07
 8.798945e-08
 1.047589e-08
 -2.796860e-08
 -4.872813e-08
 -5.753127e-08
 -5.356113e-08
 -3.528614e-08
 -7.911693e-09
 1.490669e-08
 2.113593e-08
 1.023695e-08
 -8.953799e-09
 -2.664746e-08
 -3.750954e-08
 -4.069629e-08
 -3.750447e-08
 -2.978163e-08
 -1.970478e-08
 -9.793244e-09
 -2.335387e-09
 1.439752e-09
 1.745807e-09
 0.000000e+00
 0.000000e+00
 -7.955033e-08
 -1.659509e-07
 -2.622460e-07
 -3.920909e-07
 -1.324461e-06
 9.393093e-08
 9.707386e-07
 2.765612e-07
 1.217683e-07
 9.590505e-08
 8.688143e-08
 7.510951e-08
 6.059409e-08
 4.278034e-08
 1.768011e-08
 -2.668680e-08
 -1.171894e-07
 -1.245164e-07
 1.642325e-07
 3.903192e-07
 3.130356e-07
 2.125628e-07
 1.780477e-07
 1.230302e-07
 1.755448e-05
 5.823611e-08
 4.465277e-08
 -8.771844e-09
 -4.248702e-08
 -6.655008e-08
 -8.485691e-08
 -9.673144e-08
 -9.346592e-08
 -6.143617e-08
 -3.832983e-09
 4.516651e-08
 5.394431e-08
 2.589557e-08
 -1.427727e-08
 -4.569046e-08
 -6.139959e-08
 -6.380457e-08
 -5.689464e-08
 -4.336735e-08
 -2.610761e-08
 -9.404147e-09
 2.402759e-09
 7.111178e-09
 5.392999e-09
 0.000000e+00
 0.000000e+00
 -8.976599e-08
 -1.918621e-07
 -3.222662e-07
 -3.124229e-07
 4.902613e-08
 1.781143e-05
 9.629175e-08
 -7.910553e-08
 1.361795e-08
 9.587341e-08
 1.062355e-07
 9.501909e-08
 8.013414e-08
 6.332465e-08
 4.298938e-08
 7.320733e-09
 -1.147247e-07
 -1.122052e-06
 2.196101e-07
 1.081527e-06
 4.007990e-07
 2.895564e-07
 4.287058e-07
 1.067084e-06
 1.354815e-07
 -1.236173e-06
 -2.347526e-07
 -1.218951e-07
 -1.045594e-07
 -1.102444e-07
 -1.259623e-07
 -1.495060e-07
 -1.649369e-07
 -1.203326e-07
 9.356906e-09
 1.233502e-07
 1.272762e-07
 5.249542e-08
 -3.114461e-08
 -8.205716e-08
 -9.867540e-08
 -9.587099e-08
 -8.295592e-08
 -6.101468e-08
 -3.198754e-08
 -3.707453e-09
 1.476698e-08
 1.956161e-08
 1.285767e-08
 0.000000e+00
 0.000000e+00
 -8.913119e-08
 -1.871945e-07
 -3.456028e-07
 -1.251553e-06
 8.513877e-07
 1.926494e-06
 -1.265328e-06
 -9.554332e-07
 3.322634e-08
 1.682759e-07
 1.394542e-07
 1.165078e-07
 1.015041e-07
 8.651726e-08
 7.703017e-08
 9.575426e-08
 1.795650e-07
 3.037100e-07
 1.786271e-05
 2.103397e-07
 7.296382e-08
 1.744241e-07
 3.611148e-07
 4.808844e-07
 2.423027e-07
 -1.299796e-07
 -2.141822e-07
 -1.708110e-07
 -1.503072e-07
 -1.453201e-07
 -1.576690e-07
 -2.015399e-07
 -2.974460e-07
 -2.960278e-07
 4.026848e-08
 3.416233e-07
 2.829319e-07
 8.195238e-08
 -8.860890e-08
 -1.552580e-07
 -1.537835e-07
 -1.363100e-07
 -1.183583e-07
 -8.708187e-08
 -3.736235e-08
 1.287093e-08
 4.193323e-08
 4.400108e-08
 2.655567e-08
 0.000000e+00
 0.000000e+00
 -8.472506e-08
 -1.440195e-07
 -1.646711e-07
 -2.276805e-07
 1.721080e-05
 -3.159577e-07
 -1.881904e-05
 -4.949199e-08
 8.765988e-07
 2.850134e-07
 1.547970e-07
 1.299134e-07
 1.254261e-07
 1.074841e-07
 8.442321e-08
 1.237374e-07
 3.517838e-07
 1.202867e-06
 1.458494e-06
 -1.010044e-06
 -7.340801e-07
 5.897226e-08
 2.626289e-07
 4.201093e-07
 4.284260e-07
 1.024508e-07
 -1.730058e-07
 -1.938296e-07
 -1.830461e-07
 -1.652284e-07
 -1.590382e-07
 -2.009591e-07
 -3.585397e-07
 -1.393945e-06
 1.271700e-08
 1.092286e-06
 5.277696e-07
 7.602005e-08
 -2.762076e-07
 -2.960050e-07
 -2.173138e-07
 -1.715083e-07
 -1.691707e-07
 -1.366983e-07
 -4.378850e-08
 5.412147e-08
 9.848809e-08
 8.818067e-08
 4.898403e-08
 0.000000e+00
 0.000000e+00
 -1.087311e-07
 -1.397797e-07
 -3.144263e-08
 4.467536e-07
 -1.659920e-06
 -2.330431e-06
 4.701143e-07
 1.878781e-05
 2.124129e-07
 1.066781e-07
 8.977482e-08
 1.278543e-07
 1.691949e-07
 1.452561e-07
 3.546256e-08
 -1.392057e-08
 1.105280e-07
 1.833447e-07
 4.853048e-08
 -1.727711e-05
 5.176847e-07
 3.191084e-07
 1.393565e-07
 3.599494e-07
 1.531858e-06
 3.374486e-07
 -5.291853e-07
 -1.577896e-07
 -2.443061e-07
 -1.723161e-07
 -1.134041e-07
 -1.125457e-07
 -1.240100e-07
 -1.619069e-07
 1.738399e-05
 2.135992e-07
 1.422361e-06
 9.048962e-08
 -9.589658e-07
 -4.710969e-07
 -2.392375e-07
 -1.414739e-07
 -2.617131e-07
 -2.654365e-07
 -5.462267e-08
 1.621250e-07
 2.136993e-07
 1.590264e-07
 7.942694e-08
 0.000000e+00
 0.000000e+00
 -2.172617e-07
 -2.635367e-07
 -1.380173e-07
 -1.075789e-08
 -2.538298e-07
 1.706284e-05
 5.251728e-07
 5.086050e-08
 -1.228737e-06
 -2.075338e-07
 -2.109949e-08
 1.151840e-07
 2.816935e-07
 3.103969e-07
 -7.657418e-08
 -3.891057e-07
 -1.605335e-07
 -1.696364e-07
 -1.918671e-06
 3.298728e-07
 3.607813e-06
 6.453159e-07
 -5.328442e-07
 2.736292e-08
 2.326959e-07
 -1.701351e-05
 1.561049e-06
 2.503674e-07
 -6.596421e-07
 -8.625521e-08
 -7.821080e-09
 -8.753921e-09
 6.299329e-08
 5.701211e-07
 -3.665871e-07
 -1.380015e-06
 2.361129e-08
 -1.726295e-05
 9.542953e-08
 -1.117505e-06
 -2.436603e-07
 2.611137e-07
 -5.539524e-07
 -6.670343e-07
 -6.154479e-08
 4.917370e-07
 4.296041e-07
 2.429719e-07
 1.063361e-07
 0.000000e+00
 0.000000e+00
 -5.356638e-07
 -5.737269e-07
 -3.197533e-07
 8.368943e-09
 7.095232e-07
 -1.080098e-07
 -1.261283e-06
 -3.026933e-07
 -3.635881e-07
 -2.684668e-07
 -1.094443e-07
 6.002191e-08
 3.602741e-07
 1.480538e-06
 -1.397853e-08
 -2.081124e-06
 -2.521815e-07
 6.692795e-07
 -5.995131e-08
 1.745581e-05
 2.864940e-07
 -1.712569e-05
 2.225679e-07
 -1.533084e-08
 -6.910718e-07
 2.199417e-07
 1.680413e-06
 -1.673097e-05
 5.498369e-07
 3.229956e-07
 1.499041e-07
 3.948102e-08
 -1.599861e-08
 -1.905971e-07
 -1.550498e-06
 -6.205476e-07
 -1.897899e-07
 4.302661e-07
 1.908185e-06
 1.583879e-06
 1.724839e-05
 -1.288874e-06
 -9.466537e-07
 -2.926115e-06
 -1.828352e-07
 1.782884e-06
 6.062236e-07
 2.695193e-07
 1.021454e-07
 0.000000e+00
 0.000000e+00
 -1.533660e-06
 -1.151146e-06
 -5.052016e-07
 -1.353175e-07
 8.964918e-08
 -4.343415e-09
 -2.147854e-07
 -2.670741e-07
 -2.711797e-07
 -2.303751e-07
 -2.045537e-07
 -1.297698e-07
 1.994221e-07
 4.896366e-07
 -1.704577e-05
 2.012419e-07
 1.747649e-05
 3.076692e-08
 6.256485e-07
 -3.849760e-07
 -2.217629e-06
 -7.489265e-08
 1.477584e-06
 3.053621e-07
 -1.076042e-07
 -1.261320e-07
 -1.861215e-07
 1.041935e-06
 2.241762e-06
 7.607793e-07
 2.218862e-07
 2.614468e-08
 -9.262304e-08
 -1.845005e-07
 -3.588863e-07
 1.696423e-05
 -4.181338e-07
 2.221527e-07
 1.860695e-06
 1.274260e-06
 -1.812152e-05
 -1.502782e-06
 -4.319193e-07
 -3.875969e-07
 3.459493e-05
 1.222619e-08
 3.186213e-07
 1.750217e-07
 3.037309e-08
 0.000000e+00
 0.000000e+00
 -4.739273e-06
 -1.895141e-06
 -2.306436e-07
 -2.960921e-07
 -5.237324e-08
 1.187601e-07
 1.414749e-07
 -1.055316e-07
 -2.813263e-07
 -1.774484e-07
 -1.665498e-07
 -1.160624e-06
 7.659346e-08
 4.215701e-07
 8.134873e-07
 2.468655e-06
 2.045336e-07
 -1.431167e-06
 -3.047252e-07
 -4.720793e-07
 -8.550178e-07
 -9.704406e-08
 6.992159e-07
 5.140732e-07
 6.830607e-08
 -1.096625e-06
 2.680161e-07
 1.594963e-06
 2.328564e-06
 9.237831e-07
 -1.544256e-07
 2.185500e-08
 -2.189832e-07
 -1.498489e-07
 4.299580e-07
 -5.201610e-07
 -1.734129e-06
 -3.687585e-07
 1.091817e-07
 -1.765328e-05
 5.403571e-07
 1.353592e-06
 3.904929e-07
 1.509171e-06
 -1.330555e-06
 -2.578901e-06
 5.148712e-07
 -1.114643e-09
 -1.924028e-07
 0.000000e+00
 0.000000e+00
 -3.813315e-06
 1.533416e-05
 -1.403018e-06
 -5.960886e-07
 -4.558055e-08
 2.213383e-07
 1.321532e-06
 6.634346e-08
 -7.505360e-07
 2.336208e-08
 2.968573e-07
 3.221973e-07
 1.775257e-05
 3.313870e-07
 6.807652e-07
 8.132822e-07
 1.314413e-07
 -1.536289e-06
 -4.340566e-07
 1.426097e-07
 -2.640446e-06
 -7.430577e-08
 1.826276e-06
 6.112614e-07
 3.486254e-07
 2.750876e-07
 1.773815e-05
 3.013115e-07
 5.128403e-07
 -1.662613e-05
 1.930697e-06
 3.578109e-07
 -8.317141e-07
 -3.697958e-07
 -3.404678e-07
 -6.666511e-07
 -9.260342e-07
 -6.033049e-07
 -7.006306e-07
 4.050814e-07
 2.913723e-06
 8.271942e-07
 2.384009e-08
 7.209765e-07
 8.996400e-08
 1.691595e-05
 6.351524e-07
 -3.008105e-07
 -9.598250e-07
 0.000000e+00
 0.000000e+00
 -6.061273e-07
 -1.826191e-06
 -3.656841e-06
 -7.785915e-07
 4.445457e-07
 -2.537592e-08
 8.244451e-08
 -1.727029e-05
 2.702362e-07
 5.614192e-07
 9.237134e-07
 1.469574e-06
 5.100131e-07
 -6.398842e-07
 7.008956e-07
 7.287553e-07
 1.749263e-07
 -2.632297e-07
 1.718753e-05
 -1.378451e-07
 -1.045571e-07
 3.479647e-05
 -1.001182e-07
 1.011487e-07
 3.973298e-07
 1.212638e-06
 2.902949e-07
 -1.486877e-06
 -1.130275e-06
 5.643959e-07
 2.373287e-06
 -1.669825e-05
 -3.401937e-08
 -4.147558e-07
 -6.257262e-07
 -7.957301e-07
 -1.906885e-06
 -5.254855e-07
 7.160368e-07
 3.602626e-07
 3.890750e-07
 -1.693295e-05
 7.911372e-07
 1.961118e-06
 1.065415e-06
 -1.079269e-06
 -1.865112e-06
 -1.803061e-05
 -2.146475e-07
 0.000000e+00
 0.000000e+00
 -6.755646e-07
 -2.196417e-06
 -1.131008e-06
 1.737676e-05
 -5.990443e-07
 -6.500570e-07
 -7.441779e-07
 5.511703e-07
 8.866525e-07
 1.054855e-06
 1.706743e-06
 9.354787e-07
 5.363727e-07
 4.700005e-07
 1.850091e-06
 1.924332e-06
 -4.093500e-08
 7.307291e-08
 -1.846913e-07
 -8.494052e-07
 1.664228e-06
 -2.063382e-07
 -2.979373e-06
 -6.444058e-07
 1.045095e-07
 6.369668e-07
 1.329426e-06
 -5.808072e-07
 -2.340042e-06
 2.988590e-07
 3.188132e-06
 8.286375e-07
 9.783786e-07
 -2.983466e-07
 -1.123093e-06
 -4.835437e-07
 -4.604502e-07
 1.611326e-05
 9.676264e-07
 4.986033e-07
 -1.510652e-06
 6.241688e-08
 1.634812e-06
 7.982045e-07
 -1.686252e-05
 -2.306922e-07
 -1.490235e-06
 -4.935264e-07
 1.032447e-06
 0.000000e+00
 0.000000e+00
 -3.922135e-07
 -5.727367e-07
 1.754884e-05
 -7.319898e-07
 -2.172226e-06
 -2.107672e-06
 4.917487e-08
 1.888847e-06
 1.577414e-06
 1.873837e-05
 7.530170e-07
 3.639045e-07
 2.164525e-07
 1.727472e-07
 2.953423e-07
 -1.682208e-05
 -1.554785e-05
 7.066074e-07
 -3.908228e-07
 2.524562e-07
 1.609815e-06
 -9.123943e-08
 -1.592250e-06
 -8.880551e-07
 -2.793332e-07
 1.222228e-06
 1.891711e-07
 -1.816863e-05
 3.249584e-08
 1.780919e-05
 3.149689e-07
 -3.484237e-05
 8.163034e-08
 -1.745532e-05
 3.690532e-09
 1.529871e-07
 9.298579e-07
 1.511592e-08
 1.587239e-05
 -1.829854e-05
 -5.802129e-07
 -1.546745e-07
 1.688609e-07
 -2.930682e-07
 1.510625e-06
 1.253364e-06
 -9.434847e-07
 -3.169140e-07
 4.062456e-08
 0.000000e+00
 0.000000e+00
 -1.150002e-07
 -1.946474e-07
 -2.620825e-07
 -1.550927e-06
 -7.907736e-07
 -2.535699e-06
 1.788245e-05
 2.606957e-06
 2.279820e-06
 2.160554e-06
 -6.225723e-07
 -6.696484e-07
 -1.169848e-07
 -2.309386e-07
 -9.846292e-07
 -6.210652e-07
 1.864188e-06
 -1.516452e-05
 7.807434e-07
 2.372671e-07
 3.614284e-07
 -1.739939e-05
 -5.184315e-07
 -6.864681e-07
 -1.557979e-06
 -4.155703e-07
 -1.762300e-05
 4.360669e-07
 2.453255e-06
 1.480719e-06
 -1.459064e-06
 -9.257014e-07
 9.135888e-07
 3.176060e-07
 1.373003e-06
 4.144678e-07
 6.457265e-07
 1.972785e-06
 -1.237108e-06
 -2.758552e-06
 3.470322e-07
 -1.060429e-07
 -7.810320e-08
 -1.465586e-07
 1.199158e-07
 -1.707923e-05
 2.712585e-07
 6.386406e-08
 1.167176e-08
 0.000000e+00
 0.000000e+00
 -1.711010e-05
 -1.060741e-07
 2.841035e-07
 1.530030e-07
 6.814372e-07
 1.680846e-06
 3.573490e-05
 -5.676772e-07
 5.105629e-07
 6.149054e-07
 -1.700533e-05
 2.103413e-07
 -2.919552e-08
 -2.333685e-07
 -4.524307e-07
 -4.401802e-07
 -3.522277e-07
 2.248750e-06
 2.266012e-06
 -1.218025e-06
 5.539270e-07
 7.788893e-07
 1.515115e-07
 -3.951853e-07
 5.959812e-07
 1.620966e-05
 -9.875174e-07
 1.388203e-06
 6.212102e-07
 2.543622e-07
 -1.758525e-05
 -1.720806e-05
 7.249168e-07
 3.170570e-07
 -5.141871e-08
 4.128468e-08
 2.218884e-07
 2.158123e-07
 -1.695995e-05
 -8.479129e-07
 -8.571483e-07
 1.162671e-07
 -1.077781e-07
 -4.645135e-07
 -8.064702e-07
 4.890881e-07
 1.786796e-06
 3.545373e-07
 -5.553564e-08
 0.000000e+00
 0.000000e+00
 -1.618596e-05
 2.787349e-06
 1.374753e-06
 1.896097e-09
 1.738793e-06
 4.086000e-06
 1.253229e-06
 -2.121317e-06
 -1.360125e-06
 -4.692935e-07
 1.215015e-06
 1.534360e-06
 7.729158e-08
 -1.334686e-07
 -2.589131e-07
 -3.947776e-07
 -1.308912e-06
 5.137525e-07
 -1.457974e-05
 8.068440e-07
 1.778753e-05
 -1.673882e-05
 -8.216764e-07
 -8.194803e-07
 5.282043e-07
 -1.863097e-05
 -1.068486e-06
 7.346286e-07
 -8.819307e-07
 -5.827665e-07
 7.268282e-08
 1.682961e-06
 4.057314e-06
 2.705240e-07
 -1.715944e-06
 -4.259075e-07
 -1.132120e-07
 1.513106e-07
 -1.523299e-06
 -1.832784e-05
 1.069083e-06
 1.311592e-06
 2.484172e-08
 -1.608520e-06
 -3.462845e-07
 1.012087e-06
 1.750827e-06
 2.763584e-07
 -7.289429e-07
 0.000000e+00
 0.000000e+00
 2.566385e-06
 4.245774e-06
 2.692603e-06
 9.718921e-07
 1.942601e-05
 2.688737e-06
 1.431223e-06
 5.727890e-07
 3.041180e-07
 1.761453e-05
 1.134164e-06
 8.492282e-08
 -5.960535e-07
 4.803312e-08
 -1.238644e-07
 -1.345819e-07
 -6.334863e-08
 1.583419e-05
 4.808213e-07
 -1.472952e-05
 -2.038180e-06
 -2.024911e-05
 -1.675949e-05
 9.698412e-08
 -5.109169e-07
 1.280845e-06
 1.964884e-05
 -8.083388e-07
 5.892050e-08
 1.903252e-05
 -3.274150e-07
 -8.752726e-07
 -6.356571e-09
 -3.510897e-05
 -4.544801e-07
 -2.564518e-07
 -5.684733e-08
 -1.599948e-07
 -1.802277e-05
 1.796313e-05
 1.930571e-05
 1.754243e-06
 1.999699e-07
 -9.235488e-07
 1.704856e-05
 -2.760249e-07
 -9.091445e-08
 -1.748836e-05
 1.252484e-09
 0.000000e+00
 0.000000e+00
 4.768823e-06
 4.725787e-06
 3.869359e-06
 3.656583e-06
 1.934656e-05
 1.251736e-07
 1.162533e-06
 1.325448e-06
 2.475585e-06
 1.364276e-07
 -1.961629e-06
 -1.882955e-05
 2.294390e-07
 1.248844e-06
 -6.689840e-07
 -8.067684e-07
 1.766873e-06
 6.238876e-07
 1.541841e-05
 -1.013744e-07
 1.909398e-07
 1.577038e-05
 1.942538e-05
 2.029184e-05
 1.816661e-05
 1.864969e-05
 5.307000e-07
 -8.488295e-07
 1.771205e-05
 -8.418275e-07
 -1.948003e-05
 -9.729519e-07
 -1.993708e-06
 -4.251107e-07
 -6.540771e-08
 7.799319e-08
 2.024947e-07
 -4.650207e-07
 1.807440e-06
 2.503666e-06
 -5.923698e-07
 -9.827989e-07
 -1.725460e-05
 8.753998e-07
 -2.899184e-07
 -1.964571e-06
 -1.489117e-06
 -2.981193e-07
 1.145675e-06
 0.000000e+00
 0.000000e+00
 2.284345e-05
 3.088189e-06
 5.024721e-06
 4.682546e-06
 1.340238e-06
 -1.270696e-06
 9.307962e-07
 2.675933e-06
 -3.711979e-07
 -1.776407e-05
 2.038371e-07
 2.525424e-07
 1.824591e-05
 2.260029e-06
 1.643483e-06
 1.743340e-05
 1.882154e-05
 4.031992e-07
 -1.285264e-06
 -1.178665e-06
 1.177158e-06
 1.577479e-06
 1.924946e-05
 3.733641e-07
 -8.915143e-07
 -1.075358e-06
 -8.638700e-07
 1.540225e-06
 -8.856855e-07
 -3.787058e-06
 -1.258982e-06
 4.673116e-07
 -3.395028e-07
 1.184686e-07
 4.965996e-07
 3.515879e-05
 -2.497887e-07
 1.708220e-05
 -3.290079e-08
 3.315651e-07
 -4.910371e-08
 -8.395819e-07
 2.833612e-07
 1.746402e-06
 1.961124e-07
 -1.800551e-06
 -1.022740e-06
 -8.786920e-07
 -7.996054e-09
 0.000000e+00
 0.000000e+00
 4.727113e-06
 2.640077e-06
 2.079567e-05
 -1.443774e-05
 2.304122e-06
 1.377294e-06
 1.834554e-05
 4.681119e-07
 -1.871095e-05
 1.927341e-05
 2.612270e-06
 9.400096e-07
 1.096621e-06
 1.787101e-05
 -1.566016e-05
 1.099463e-06
 -1.467339e-06
 -2.036355e-05
 -5.070888e-07
 9.256703e-07
 9.596880e-07
 1.584042e-06
 6.827057e-07
 -1.839268e-05
 -1.691849e-07
 -6.086343e-08
 9.642894e-07
 -3.568181e-07
 -1.908173e-05
 -1.200170e-06
 -6.447823e-07
 -5.313465e-08
 2.963673e-07
 7.740491e-07
 2.107979e-06
 2.257271e-07
 -2.104659e-06
 -1.189795e-06
 -2.177899e-06
 -5.134283e-07
 -3.880427e-08
 6.725023e-08
 4.859725e-07
 8.212862e-07
 1.615288e-06
 -6.141509e-08
 1.639651e-05
 -3.766364e-07
 1.736173e-05
 0.000000e+00
 0.000000e+00
 3.727768e-06
 3.775555e-06
 2.492830e-06
 1.487554e-06
 3.641164e-06
 2.665874e-06
 9.543306e-07
 -1.249184e-06
 1.102974e-06
 1.939175e-05
 -1.758328e-05
 -1.373963e-07
 1.804247e-06
 2.445864e-06
 1.572252e-07
 7.393700e-07
 -1.147382e-06
 -7.297169e-07
 1.721053e-05
 1.247198e-06
 9.931205e-07
 -3.388818e-07
 4.038082e-07
 -1.697000e-07
 5.158084e-07
 3.050118e-07
 -7.672567e-08
 -1.855098e-05
 -1.463945e-06
 6.229517e-07
 3.343720e-07
 1.794718e-07
 6.746122e-07
 9.379982e-07
 8.060211e-07
 6.806808e-08
 -7.923496e-07
 -1.377415e-06
 -3.409778e-06
 -6.773828e-07
 1.399656e-07
 1.639123e-07
 1.051454e-06
 5.886452e-07
 4.828982e-07
 -1.648426e-05
 2.074861e-07
 -3.930473e-07
 1.119731e-08
 0.000000e+00
 0.000000e+00
 3.998786e-06
 2.024280e-05
 4.089853e-07
 2.207075e-06
 3.128988e-06
 1.997167e-06
 9.923435e-07
 5.590966e-07
 1.218005e-06
 -6.271274e-09
 7.349123e-07
 1.054418e-06
 1.794670e-05
 1.645677e-06
 -1.537852e-05
 6.088155e-07
 -5.790619e-07
 5.212862e-07
 -2.577166e-07
 1.578318e-05
 -1.823427e-05
 -4.654234e-07
 -2.479521e-07
 -1.852112e-05
 3.171957e-07
 1.990883e-06
 -3.218081e-07
 -1.937623e-07
 2.451295e-06
 1.737240e-05
 -2.103032e-06
 1.657750e-08
 1.317842e-06
 1.828036e-06
 3.735694e-07
 1.754836e-07
 -6.750566e-07
 -1.202158e-06
 -3.810309e-07
 3.483140e-05
 -1.425795e-07
 1.619350e-05
 -1.683627e-07
 4.997002e-07
 -7.480134e-07
 1.784297e-07
 1.488037e-06
 3.803888e-07
 1.697031e-07
 0.000000e+00
 0.000000e+00
 4.997224e-06
 -1.550433e-05
 1.255448e-06
 2.029499e-05
 2.136636e-06
 1.536504e-06
 -8.363826e-08
 6.858540e-07
 1.201907e-07
 -7.389370e-07
 4.784536e-07
 -1.459044e-05
 1.807386e-05
 -1.596882e-06
 8.762297e-07
 -1.564389e-05
 7.386382e-07
 3.342325e-07
 2.196557e-07
 -1.777989e-06
 -3.335274e-06
 -7.181143e-07
 -4.658807e-08
 7.849590e-07
 1.846650e-05
 -1.051290e-06
 -1.691769e-05
 2.816922e-06
 1.501399e-06
 -1.806069e-05
 -1.232656e-06
 1.756819e-05
 2.053270e-07
 1.062953e-07
 -1.773473e-05
 -6.068809e-07
 -1.874140e-05
 6.568001e-07
 1.840519e-06
 5.374280e-07
 -9.550237e-07
 -3.816074e-07
 1.574820e-05
 -1.042946e-06
 -9.725037e-07
 -4.424687e-07
 2.642095e-07
 4.584675e-07
 2.322408e-07
 0.000000e+00
 0.000000e+00
 3.661169e-06
 3.579173e-06