<VTKFile type="UnstructuredGrid"  version="0.1"   >
<UnstructuredGrid>  
<Piece  NumberOfPoints="     2601"  NumberOfCells="     5000">  
<Points>  
<DataArray  type="Float64"  NumberOfComponents="3"  format="ascii">  
 0.000000 0.000000 0.000000 
 0.020000 0.000000 0.000000 
 0.040000 0.000000 0.000000 
 0.060000 0.000000 0.000000 
 0.080000 0.000000 0.000000 
 0.100000 0.000000 0.000000 
 0.120000 0.000000 0.000000 
 0.140000 0.000000 0.000000 
 0.160000 0.000000 0.000000 
 0.180000 0.000000 0.000000 
 0.200000 0.000000 0.000000 
 0.220000 0.000000 0.000000 
 0.240000 0.000000 0.000000 
 0.260000 0.000000 0.000000 
 0.280000 0.000000 0.000000 
 0.300000 0.000000 0.000000 
 0.320000 0.000000 0.000000 
 0.340000 0.000000 0.000000 
 0.360000 0.000000 0.000000 
 0.380000 0.000000 0.000000 
 0.400000 0.000000 0.000000 
 0.420000 0.000000 0.000000 
 0.440000 0.000000 0.000000 
 0.460000 0.000000 0.000000 
 0.480000 0.000000 0.000000 
 0.500000 0.000000 0.000000 
 0.520000 0.000000 0.000000 
 0.540000 0.000000 0.000000 
 0.560000 0.000000 0.000000 
 0.580000 0.000000 0.000000 
 0.600000 0.000000 0.000000 
 0.620000 0.000000 0.000000 
 0.640000 0.000000 0.000000 
 0.660000 0.000000 0.000000 
 0.680000 0.000000 0.000000 
 0.700000 0.000000 0.000000 
 0.720000 0.000000 0.000000 
 0.740000 0.000000 0.000000 
 0.760000 0.000000 0.000000 
 0.780000 0.000000 0.000000 
 0.800000 0.000000 0.000000 
 0.820000 0.000000 0.000000 
 0.840000 0.000000 0.000000 
 0.860000 0.000000 0.000000 
 0.880000 0.000000 0.000000 
 0.900000 0.000000 0.000000 
 0.920000 0.000000 0.000000 
 0.940000 0.000000 0.000000 
 0.960000 0.000000 0.000000 
 0.980000 0.000000 0.000000 
 1.000000 0.000000 0.000000 
 0.000000 0.020000 0.000000 
 0.020000 0.020000 0.000000 
 0.040000 0.020000 0.000000 
 0.060000 0.020000 0.000000 
 0.080000 0.020000 0.000000 
 0.100000 0.020000 0.000000 
 0.120000 0.020000 0.000000 
 0.140000 0.020000 0.000000 
 0.160000 0.020000 0.000000 
 0.180000 0.020000 0.000000 
 0.200000 0.020000 0.000000 
 0.220000 0.020000 0.000000 
 0.240000 0.020000 0.000000 
 0.260000 0.020000 0.000000 
 0.280000 0.020000 0.000000 
 0.300000 0.020000 0.000000 
 0.320000 0.020000 0.000000 
 0.340000 0.020000 0.000000 
 0.360000 0.020000 0.000000 
 0.380000 0.020000 0.000000 
 0.400000 0.020000 0.000000 
 0.420000 0.020000 0.000000 
 0.440000 0.020000 0.000000 
 0.460000 0.020000 0.000000 
 0.480000 0.020000 0.000000 
 0.500000 0.020000 0.000000 
 0.520000 0.020000 0.000000 
 0.540000 0.020000 0.000000 
 0.560000 0.020000 0.000000 
 0.580000 0.020000 0.000000 
 0.600000 0.020000 0.000000 
 0.620000 0.020000 0.000000 
 0.640000 0.020000 0.000000 
 0.660000 0.020000 0.000000 
 0.680000 0.020000 0.000000 
 0.700000 0.020000 0.000000 
 0.720000 0.020000 0.000000 
 0.740000 0.020000 0.000000 
 0.760000 0.020000 0.000000 
 0.780000 0.020000 0.000000 
 0.800000 0.020000 0.000000 
 0.820000 0.020000 0.000000 
 0.840000 0.020000 0.000000 
 0.860000 0.020000 0.000000 
 0.880000 0.020000 0.000000 
 0.900000 0.020000 0.000000 
 0.920000 0.020000 0.000000 
 0.940000 0.020000 0.000000 
 0.960000 0.020000 0.000000 
 0.980000 0.020000 0.000000 
 1.000000 0.020000 0.000000 
 0.000000 0.040000 0.000000 
 0.020000 0.040000 0.000000 
 0.040000 0.040000 0.000000 
 0.060000 0.040000 0.000000 
 0.080000 0.040000 0.000000 
 0.100000 0.040000 0.000000 
 0.120000 0.040000 0.000000 
 0.140000 0.040000 0.000000 
 0.160000 0.040000 0.000000 
 0.180000 0.040000 0.000000 
 0.200000 0.040000 0.000000 
 0.220000 0.040000 0.000000 
 0.240000 0.040000 0.000000 
 0.260000 0.040000 0.000000 
 0.280000 0.040000 0.000000 
 0.300000 0.040000 0.000000 
 0.320000 0.040000 0.000000 
 0.340000 0.040000 0.000000 
 0.360000 0.040000 0.000000 
 0.380000 0.040000 0.000000 
 0.400000 0.040000 0.000000 
 0.420000 0.040000 0.000000 
 0.440000 0.040000 0.000000 
 0.460000 0.040000 0.000000 
 0.480000 0.040000 0.000000 
 0.500000 0.040000 0.000000 
 0.520000 0.040000 0.000000 
 0.540000 0.040000 0.000000 
 0.560000 0.040000 0.000000 
 0.580000 0.040000 0.000000 
 0.600000 0.040000 0.000000 
 0.620000 0.040000 0.000000 
 0.640000 0.040000 0.000000 
 0.660000 0.040000 0.000000 
 0.680000 0.040000 0.000000 
 0.700000 0.040000 0.000000 
 0.720000 0.040000 0.000000 
 0.740000 0.040000 0.000000 
 0.760000 0.040000 0.000000 
 0.780000 0.040000 0.000000 
 0.800000 0.040000 0.000000 
 0.820000 0.040000 0.000000 
 0.840000 0.040000 0.000000 
 0.860000 0.040000 0.000000 
 0.880000 0.040000 0.000000 
 0.900000 0.040000 0.000000 
 0.920000 0.040000 0.000000 
 0.940000 0.040000 0.000000 
 0.960000 0.040000 0.000000 
 0.980000 0.040000 0.000000 
 1.000000 0.040000 0.000000 
 0.000000 0.060000 0.000000 
 0.020000 0.060000 0.000000 
 0.040000 0.060000 0.000000 
 0.060000 0.060000 0.000000 
 0.080000 0.060000 0.000000 
 0.100000 0.060000 0.000000 
 0.120000 0.060000 0.000000 
 0.140000 0.060000 0.000000 
 0.160000 0.060000 0.000000 
 0.180000 0.060000 0.000000 
 0.200000 0.060000 0.000000 
 0.220000 0.060000 0.000000 
 0.240000 0.060000 0.000000 
 0.260000 0.060000 0.000000 
 0.280000 0.060000 0.000000 
 0.300000 0.060000 0.000000 
 0.320000 0.060000 0.000000 
 0.340000 0.060000 0.000000 
 0.360000 0.060000 0.000000 
 0.380000 0.060000 0.000000 
 0.400000 0.060000 0.000000 
 0.420000 0.060000 0.000000 
 0.440000 0.060000 0.000000 
 0.460000 0.060000 0.000000 
 0.480000 0.060000 0.000000 
 0.500000 0.060000 0.000000 
 0.520000 0.060000 0.000000 
 0.540000 0.060000 0.000000 
 0.560000 0.060000 0.000000 
 0.580000 0.060000 0.000000 
 0.600000 0.060000 0.000000 
 0.620000 0.060000 0.000000 
 0.640000 0.060000 0.000000 
 0.660000 0.060000 0.000000 
 0.680000 0.060000 0.000000 
 0.700000 0.060000 0.000000 
 0.720000 0.060000 0.000000 
 0.740000 0.060000 0.000000 
 0.760000 0.060000 0.000000 
 0.780000 0.060000 0.000000 
 0.800000 0.060000 0.000000 
 0.820000 0.060000 0.000000 
 0.840000 0.060000 0.000000 
 0.860000 0.060000 0.000000 
 0.880000 0.060000 0.000000 
 0.900000 0.060000 0.000000 
 0.920000 0.060000 0.000000 
 0.940000 0.060000 0.000000 
 0.960000 0.060000 0.000000 
 0.980000 0.060000 0.000000 
 1.000000 0.060000 0.000000 
 0.000000 0.080000 0.000000 
 0.020000 0.080000 0.000000 
 0.040000 0.080000 0.000000 
 0.060000 0.080000 0.000000 
 0.080000 0.080000 0.000000 
 0.100000 0.080000 0.000000 
 0.120000 0.080000 0.000000 
 0.140000 0.080000 0.000000 
 0.160000 0.080000 0.000000 
 0.180000 0.080000 0.000000 
 0.200000 0.080000 0.000000 
 0.220000 0.080000 0.000000 
 0.240000 0.080000 0.000000 
 0.260000 0.080000 0.000000 
 0.280000 0.080000 0.000000 
 0.300000 0.080000 0.000000 
 0.320000 0.080000 0.000000 
 0.340000 0.080000 0.000000 
 0.360000 0.080000 0.000000 
 0.380000 0.080000 0.000000 
 0.400000 0.080000 0.000000 
 0.420000 0.080000 0.000000 
 0.440000 0.080000 0.000000 
 0.460000 0.080000 0.000000 
 0.480000 0.080000 0.000000 
 0.500000 0.080000 0.000000 
 0.520000 0.080000 0.000000 
 0.540000 0.080000 0.000000 
 0.560000 0.080000 0.000000 
 0.580000 0.080000 0.000000 
 0.600000 0.080000 0.000000 
 0.620000 0.080000 0.000000 
 0.640000 0.080000 0.000000 
 0.660000 0.080000 0.000000 
 0.680000 0.080000 0.000000 
 0.700000 0.080000 0.000000 
 0.720000 0.080000 0.000000 
 0.740000 0.080000 0.000000 
 0.760000 0.080000 0.000000 
 0.780000 0.080000 0.000000 
 0.800000 0.080000 0.000000 
 0.820000 0.080000 0.000000 
 0.840000 0.080000 0.000000 
 0.860000 0.080000 0.000000 
 0.880000 0.080000 0.000000 
 0.900000 0.080000 0.000000 
 0.920000 0.080000 0.000000 
 0.940000 0.080000 0.000000 
 0.960000 0.080000 0.000000 
 0.980000 0.080000 0.000000 
 1.000000 0.080000 0.000000 
 0.000000 0.100000 0.000000 
 0.020000 0.100000 0.000000 
 0.040000 0.100000 0.000000 
 0.060000 0.100000 0.000000 
 0.080000 0.100000 0.000000 
 0.100000 0.100000 0.000000 
 0.120000 0.100000 0.000000 
 0.140000 0.100000 0.000000 
 0.160000 0.100000 0.000000 
 0.180000 0.100000 0.000000 
 0.200000 0.100000 0.000000 
 0.220000 0.100000 0.000000 
 0.240000 0.100000 0.000000 
 0.260000 0.100000 0.000000 
 0.280000 0.100000 0.000000 
 0.300000 0.100000 0.000000 
 0.320000 0.100000 0.000000 
 0.340000 0.100000 0.000000 
 0.360000 0.100000 0.000000 
 0.380000 0.100000 0.000000 
 0.400000 0.100000 0.000000 
 0.420000 0.100000 0.000000 
 0.440000 0.100000 0.000000 
 0.460000 0.100000 0.000000 
 0.480000 0.100000 0.000000 
 0.500000 0.100000 0.000000 
 0.520000 0.100000 0.000000 
 0.540000 0.100000 0.000000 
 0.560000 0.100000 0.000000 
 0.580000 0.100000 0.000000 
 0.600000 0.100000 0.000000 
 0.620000 0.100000 0.000000 
 0.640000 0.100000 0.000000 
 0.660000 0.100000 0.000000 
 0.680000 0.100000 0.000000 
 0.700000 0.100000 0.000000 
 0.720000 0.100000 0.000000 
 0.740000 0.100000 0.000000 
 0.760000 0.100000 0.000000 
 0.780000 0.100000 0.000000 
 0.800000 0.100000 0.000000 
 0.820000 0.100000 0.000000 
 0.840000 0.100000 0.000000 
 0.860000 0.100000 0.000000 
 0.880000 0.100000 0.000000 
 0.900000 0.100000 0.000000 
 0.920000 0.100000 0.000000 
 0.940000 0.100000 0.000000 
 0.960000 0.100000 0.000000 
 0.980000 0.100000 0.000000 
 1.000000 0.100000 0.000000 
 0.000000 0.120000 0.000000 
 0.020000 0.120000 0.000000 
 0.040000 0.120000 0.000000 
 0.060000 0.120000 0.000000 
 0.080000 0.120000 0.000000 
 0.100000 0.120000 0.000000 
 0.120000 0.120000 0.000000 
 0.140000 0.120000 0.000000 
 0.160000 0.120000 0.000000 
 0.180000 0.120000 0.000000 
 0.200000 0.120000 0.000000 
 0.220000 0.120000 0.000000 
 0.240000 0.120000 0.000000 
 0.260000 0.120000 0.000000 
 0.280000 0.120000 0.000000 
 0.300000 0.120000 0.000000 
 0.320000 0.120000 0.000000 
 0.340000 0.120000 0.000000 
 0.360000 0.120000 0.000000 
 0.380000 0.120000 0.000000 
 0.400000 0.120000 0.000000 
 0.420000 0.120000 0.000000 
 0.440000 0.120000 0.000000 
 0.460000 0.120000 0.000000 
 0.480000 0.120000 0.000000 
 0.500000 0.120000 0.000000 
 0.520000 0.120000 0.000000 
 0.540000 0.120000 0.000000 
 0.560000 0.120000 0.000000 
 0.580000 0.120000 0.000000 
 0.600000 0.120000 0.000000 
[...]
<PointData  Scalars="U"> 
<DataArray  type="Float64"  Name="U"  format="ascii"> 
 0.000000e+00
 0.000000e+00
 0.000000e+00
 0.000000e+00
 0.000000e+00
 0.000000e+00
 0.000000e+00
 0.000000e+00
 0.000000e+00
 0.000000e+00
 0.000000e+00
 0.000000e+00
 0.000000e+00
 0.000000e+00
 0.000000e+00
 0.000000e+00
 0.000000e+00
 0.000000e+00
 0.000000e+00
 0.000000e+00
 0.000000e+00
 0.000000e+00
 0.000000e+00
 0.000000e+00
 0.000000e+00
 0.000000e+00
 0.000000e+00
 0.000000e+00
 0.000000e+00
 0.000000e+00
 0.000000e+00
 0.000000e+00
 0.000000e+00
 0.000000e+00
 0.000000e+00
 0.000000e+00
 0.000000e+00
 0.000000e+00
 0.000000e+00
 0.000000e+00
 0.000000e+00
 0.000000e+00
 0.000000e+00
 0.000000e+00
 0.000000e+00
 0.000000e+00
 0.000000e+00
 0.000000e+00
 0.000000e+00
 0.000000e+00
 0.000000e+00
 0.000000e+00
 5.982700e-12
 1.197238e-11
 1.797472e-11
 2.399296e-11
 3.002671e-11
 3.607111e-11
 4.211614e-11
 4.814612e-11
 5.413963e-11
 6.006959e-11
 6.590366e-11
 7.160487e-11
 7.713254e-11
 8.244326e-11
 8.749209e-11
 9.223377e-11
 9.662397e-11
 1.006205e-10
 1.041843e-10
 1.072807e-10
 1.098799e-10
 1.119575e-10
 1.134956e-10
 1.144819e-10
 1.149109e-10
 1.147826e-10
 1.141031e-10
 1.128836e-10
 1.111400e-10
 1.088921e-10
 1.061634e-10
 1.029799e-10
 9.936962e-11
 9.536196e-11
 9.098717e-11
 8.627571e-11
 8.125784e-11
 7.596318e-11
 7.042044e-11
 6.465714e-11
 5.869943e-11
 5.257194e-11
 4.629769e-11
 3.989785e-11
 3.339127e-11
 2.679268e-11
 2.010614e-11
 1.329529e-11
 6.121274e-12
 0.000000e+00
 0.000000e+00
 1.195821e-11
 2.393166e-11
 3.593296e-11
 4.796965e-11
 6.004189e-11
 7.214067e-11
 8.424634e-11
 9.632776e-11
 1.083419e-10
 1.202343e-10
 1.319395e-10
 1.433828e-10
 1.544818e-10
 1.651484e-10
 1.752915e-10
 1.848194e-10
 1.936422e-10
 2.016744e-10
 2.088370e-10
 2.150597e-10
 2.202822e-10
 2.244558e-10
 2.275438e-10
 2.295223e-10
 2.303799e-10
 2.301173e-10
 2.287471e-10
 2.262920e-10
 2.227847e-10
 2.182656e-10
 2.127821e-10
 2.063869e-10
 1.991367e-10
 1.910911e-10
 1.823110e-10
 1.728577e-10
 1.627923e-10
 1.521742e-10
 1.410612e-10
 1.295084e-10
 1.175684e-10
 1.052903e-10
 9.272059e-11
 7.990187e-11
 6.687317e-11
 5.366868e-11
 4.031601e-11
 2.683829e-11
 1.332702e-11
 0.000000e+00
 0.000000e+00
 1.791804e-11
 3.586222e-11
 5.385459e-11
 7.190923e-11
 9.002875e-11
 1.082014e-10
 1.263988e-10
 1.445747e-10
 1.626642e-10
 1.805846e-10
 1.982360e-10
 2.155042e-10
 2.322628e-10
 2.483768e-10
 2.637064e-10
 2.781108e-10
 2.914521e-10
 3.035992e-10
 3.144313e-10
 3.238407e-10
 3.317355e-10
 3.380417e-10
 3.427037e-10
 3.456857e-10
 3.469709e-10
 3.465615e-10
 3.444773e-10
 3.407542e-10
 3.354423e-10
 3.286044e-10
 3.203130e-10
 3.106492e-10
 2.996995e-10
 2.875548e-10
 2.743078e-10
 2.600518e-10
 2.448791e-10
 2.288799e-10
 2.121413e-10
 1.947466e-10
 1.767747e-10
 1.582999e-10
 1.393918e-10
 1.201151e-10
 1.005297e-10
 8.069140e-11
 6.065342e-11
 4.047464e-11
 2.023305e-11
 0.000000e+00
 0.000000e+00
 2.385105e-11
 4.774326e-11
 7.171203e-11
 9.578151e-11
 1.199597e-10
 1.442343e-10
 1.685697e-10
 1.929049e-10
 2.171529e-10
 2.412013e-10
 2.649138e-10
 2.881338e-10
 3.106876e-10
 3.323895e-10
 3.530471e-10
 3.724665e-10
 3.904579e-10
 4.068413e-10
 4.214508e-10
 4.341391e-10
 4.447808e-10
 4.532750e-10
 4.595470e-10
 4.635489e-10
 4.652595e-10
 4.646833e-10
 4.618489e-10
 4.568070e-10
 4.496278e-10
 4.403978e-10
 4.292175e-10
 4.161979e-10
 4.014578e-10
 3.851208e-10
 3.673134e-10
 3.481621e-10
 3.277918e-10
 3.063243e-10
 2.838767e-10
 2.605611e-10
 2.364830e-10
 2.117420e-10
 1.864309e-10
 1.606363e-10
 1.344388e-10
 1.079142e-10
 8.113566e-11
 5.417632e-11
 2.710991e-11
 0.000000e+00
 0.000000e+00
 2.974193e-11
 5.954586e-11
 8.946604e-11
 1.195417e-10
 1.497903e-10
 1.802022e-10
 2.107365e-10
 2.413181e-10
 2.718373e-10
 3.021503e-10
 3.320814e-10
 3.614275e-10
 3.899630e-10
 4.174464e-10
 4.436267e-10
 4.682516e-10
 4.910742e-10
 5.118605e-10
 5.303953e-10
 5.464883e-10
 5.599778e-10
 5.707350e-10
 5.786648e-10
 5.837078e-10
 5.858389e-10
 5.850668e-10
 5.814312e-10
 5.750000e-10
 5.658662e-10
 5.541434e-10
 5.399627e-10
 5.234681e-10
 5.048132e-10
 4.841574e-10
 4.616627e-10
 4.374908e-10
 4.118010e-10
 3.847477e-10
 3.564793e-10
 3.271368e-10
 2.968533e-10
 2.657532e-10
 2.339526e-10
 2.015595e-10
 1.686743e-10
 1.353912e-10
 1.017991e-10
 6.798356e-11
 3.402566e-11
 0.000000e+00
 0.000000e+00
 3.556952e-11
 7.122966e-11
 1.070610e-10
 1.431243e-10
 1.794523e-10
 2.160421e-10
 2.528499e-10
 2.897879e-10
 3.267227e-10
 3.634764e-10
 3.998302e-10
 4.355291e-10
 4.702892e-10
 5.038059e-10
 5.357627e-10
 5.658411e-10
 5.937301e-10
 6.191352e-10
 6.417866e-10
 6.614462e-10
 6.779131e-10
 6.910281e-10
 7.006754e-10
 7.067840e-10
 7.093268e-10
 7.083186e-10
 7.038132e-10
 6.958993e-10
 6.846963e-10
 6.703491e-10
 6.530232e-10
 6.328995e-10
 6.101700e-10
 5.850329e-10
 5.576887e-10
 5.283368e-10
 4.971726e-10
 4.643850e-10
 4.301546e-10
 3.946523e-10
 3.580387e-10
 3.204634e-10
 2.820655e-10
 2.429737e-10
 2.033070e-10
 1.631765e-10
 1.226856e-10
 8.193195e-11
 4.100775e-11
 0.000000e+00
 0.000000e+00
 4.130479e-11
 8.273900e-11
 1.244191e-10
 1.664363e-10
 2.088456e-10
 2.516564e-10
 2.948256e-10
 3.382536e-10
 3.817822e-10
 4.251965e-10
 4.682289e-10
 5.105659e-10
 5.518569e-10
 5.917249e-10
 6.297783e-10
 6.656228e-10
 6.988741e-10
 7.291690e-10
 7.561760e-10
 7.796036e-10
 7.992077e-10
 8.147963e-10
 8.262321e-10
 8.334332e-10
 8.363722e-10
 8.350735e-10
 8.296087e-10
 8.200920e-10
 8.066741e-10
 7.895362e-10
 7.688832e-10
 7.449378e-10
 7.179348e-10
 6.881152e-10
 6.557216e-10
 6.209940e-10
 5.841663e-10
 5.454636e-10
 5.051000e-10
 4.632773e-10
 4.201839e-10
 3.759946e-10
 3.308708e-10
 2.849612e-10
 2.384025e-10
 1.913211e-10
 1.438338e-10
 9.605004e-11
 4.807273e-11
 0.000000e+00
 0.000000e+00
 4.690846e-11
 9.399819e-11
 1.414340e-10
 1.893486e-10
 2.378286e-10
 2.869027e-10
 3.365329e-10
 3.866090e-10
 4.369471e-10
 4.872907e-10
 5.373169e-10
 5.866443e-10
 6.348452e-10
 6.814583e-10
 7.260043e-10
 7.680012e-10
 8.069798e-10
 8.424976e-10
 8.741526e-10
 9.015932e-10
 9.245271e-10
 9.427267e-10
 9.560325e-10
 9.643530e-10
 9.676634e-10
 9.660015e-10
 9.594622e-10
 9.481909e-10
 9.323760e-10
 9.122413e-10
 8.880374e-10
 8.600349e-10
 8.285165e-10
 7.937711e-10
 7.560875e-10
 7.157497e-10
 6.730330e-10
 6.282009e-10
 5.815024e-10
 5.331708e-10
 4.834227e-10
 4.324580e-10
 3.804599e-10
 3.275960e-10
 2.740193e-10
 2.198702e-10
 1.652775e-10
 1.103609e-10
 5.523266e-11
 0.000000e+00
 0.000000e+00
 5.232808e-11
 1.049059e-10
 1.579624e-10
 2.116859e-10
 2.662064e-10
 3.215808e-10
 3.777817e-10
 4.346905e-10
 4.920952e-10
 5.496927e-10
 6.070957e-10
 6.638438e-10
 7.194181e-10
 7.732582e-10
 8.247816e-10
 8.734027e-10
 9.185528e-10
 9.596976e-10
 9.963535e-10
 1.028100e-09
 1.054592e-09
 1.075562e-09
 1.090829e-09
 1.100293e-09
 1.103936e-09
 1.101815e-09
 1.094055e-09
 1.080839e-09
 1.062402e-09
 1.039019e-09
 1.010992e-09
 9.786487e-10
 9.423253e-10
 9.023644e-10
 8.591060e-10
 8.128822e-10
 7.640129e-10
 7.128020e-10
 6.595351e-10
 6.044779e-10
 5.478755e-10
 4.899522e-10
 4.309124e-10
 3.709413e-10
 3.102068e-10
 2.488613e-10
 1.870438e-10
 1.248824e-10
 6.249658e-11
 0.000000e+00
 0.000000e+00
 5.749447e-11
 1.153281e-10
 1.738139e-10
 2.332138e-10
 2.937160e-10
 3.554170e-10
 4.183068e-10
 4.822607e-10
 5.470364e-10
 6.122769e-10
 6.775196e-10
 7.422102e-10
 8.057214e-10
 8.673745e-10
 9.264638e-10
 9.822810e-10
 1.034140e-09
 1.081397e-09
 1.123476e-09
 1.159876e-09
 1.190192e-09
 1.214116e-09
 1.231442e-09
 1.242067e-09
 1.245985e-09
 1.243278e-09
 1.234111e-09
 1.218715e-09
 1.197381e-09
 1.170442e-09
 1.138267e-09
 1.101243e-09
 1.059771e-09
 1.014254e-09
 9.650878e-10
 9.126577e-10
 8.573313e-10
 7.994557e-10
 7.393545e-10
 6.773267e-10
 6.136457e-10
 5.485599e-10
 4.822933e-10
 4.150474e-10
 3.470030e-10
 2.783225e-10
 2.091527e-10
 1.396274e-10
 6.987074e-11
 0.000000e+00
 0.000000e+00
 6.231727e-11
 1.250896e-10
 1.887391e-10
 2.536238e-10
 3.200092e-10
 3.880451e-10
 4.577480e-10
 5.289899e-10
 6.014950e-10
 6.748435e-10
 7.484833e-10
 8.217474e-10
 8.938781e-10
 9.640543e-10
 1.031422e-09
 1.095125e-09
 1.154338e-09
 1.208290e-09
 1.256291e-09
 1.297754e-09
 1.332202e-09
 1.359284e-09
 1.378772e-09
 1.390564e-09
 1.394671e-09
 1.391214e-09
 1.380405e-09
 1.362537e-09
 1.337969e-09
 1.307106e-09
 1.270391e-09
 1.228285e-09
 1.181262e-09
 1.129790e-09
 1.074331e-09
 1.015326e-09
 9.531949e-10
 8.883307e-10
 8.210964e-10
 7.518246e-10
 6.808168e-10
 6.083445e-10
 5.346500e-10
 4.599489e-10
 3.844327e-10
 3.082710e-10
 2.316154e-10
 1.546028e-10
 7.735836e-11
 0.000000e+00
 0.000000e+00
 6.667948e-11
 1.339631e-10
 2.024137e-10
 2.725136e-10
 3.446293e-10
 4.189821e-10
 4.956254e-10
 5.744318e-10
 6.550878e-10
 7.370996e-10
 8.198073e-10
 9.024075e-10
 9.839840e-10
 1.063542e-09
 1.140049e-09
 1.212470e-09
 1.279811e-09
 1.341149e-09
 1.395665e-09
 1.442665e-09
 1.481599e-09
 1.512066e-09
 1.533819e-09
 1.546763e-09
 1.550938e-09
 1.546514e-09
 1.533768e-09
 1.513069e-09
 1.484857e-09
 1.449626e-09
 1.407906e-09
 1.360246e-09
 1.307198e-09
 1.249312e-09
 1.187115e-09
 1.121116e-09
 1.051787e-09
 9.795706e-10
 9.048706e-10
 8.280532e-10
 7.494477e-10
 6.693467e-10
 5.880091e-10
 5.056622e-10
 4.225047e-10
 3.387108e-10
 2.544334e-10
 1.698086e-10
 8.495930e-11
 0.000000e+00
 0.000000e+00
 7.043061e-11
 1.416560e-10
 2.144195e-10
 2.893632e-10
 3.669843e-10
 4.475979e-10
 5.313086e-10
 6.179936e-10
 7.072969e-10
 7.986359e-10
 8.912197e-10
 9.840784e-10
 1.076101e-09
 1.166082e-09
 1.252768e-09
 1.334908e-09
 1.411304e-09
 1.480852e-09
 1.542579e-09
 1.595669e-09
 1.639488e-09
 1.673585e-09
 1.697700e-09
 1.711750e-09
 1.715823e-09
 1.710151e-09
 1.695097e-09
 1.671122e-09
 1.638770e-09
 1.598639e-09
 1.551363e-09
 1.497592e-09
 1.437972e-09
 1.373138e-09
 1.303699e-09
 1.230228e-09
 1.153261e-09
 1.073288e-09
 9.907558e-10
 9.060641e-10
 8.195682e-10
 7.315803e-10
 6.423729e-10
 5.521817e-10
 4.612096e-10
 3.696311e-10
 2.775967e-10
 1.852373e-10
 9.266955e-11
 0.000000e+00
 0.000000e+00
 7.337823e-11
 1.477941e-10
 2.242206e-10
 3.035046e-10
 3.863116e-10
 4.730783e-10
 5.639783e-10
 6.588990e-10
 7.574353e-10
 8.588972e-10
 9.623335e-10
 1.066569e-09
 1.170253e-09
 1.271918e-09
 1.370040e-09
 1.463105e-09
 1.549667e-09
 1.628403e-09
 1.698158e-09
 1.757977e-09
 1.807130e-09
 1.845118e-09
 1.871672e-09
 1.886741e-09
 1.890472e-09
 1.883189e-09
 1.865358e-09
 1.837562e-09
 1.800467e-09
 1.754800e-09
 1.701316e-09
 1.640783e-09
 1.573955e-09
 1.501565e-09
 1.424307e-09
 1.342830e-09
 1.257732e-09
 1.169557e-09
 1.078793e-09
 9.858721e-10
 8.911738e-10
 7.950274e-10
 6.977151e-10
 5.994774e-10
 5.005170e-10
 4.010042e-10
 3.010824e-10
 2.008729e-10
 1.004808e-10
 0.000000e+00
 0.000000e+00
 7.527738e-11
 1.519003e-10
 2.311336e-10
 3.140849e-10
 4.016346e-10
 4.943776e-10
 5.925779e-10
 6.961410e-10
 8.046041e-10
 9.171465e-10
 1.032619e-09
 1.149591e-09
 1.266415e-09
 1.381297e-09
 1.492382e-09
 1.597827e-09
 1.695885e-09
 1.784969e-09
 1.863709e-09
 1.930990e-09
 1.985977e-09
 2.028122e-09
 2.057163e-09
 2.073097e-09
 2.076161e-09
 2.066794e-09
 2.045600e-09
 2.013309e-09
 1.970742e-09
 1.918778e-09
 1.858318e-09
 1.790263e-09
 1.715494e-09
 1.634852e-09
 1.549125e-09
 1.459043e-09
 1.365271e-09
 1.268407e-09
 1.168978e-09
 1.067449e-09
 9.642200e-10
 8.596331e-10
 7.539766e-10
 6.474904e-10
 5.403721e-10
 4.327828e-10
 3.248531e-10
 2.166893e-10
 1.083796e-10
 0.000000e+00
 0.000000e+00
 7.581751e-11
 1.533696e-10
 2.342905e-10
 3.200187e-10
 4.117090e-10
 5.101592e-10
 6.157528e-10
 7.284227e-10
 8.476385e-10
 9.724186e-10
 1.101368e-09
 1.232737e-09
 1.364507e-09
 1.494478e-09
 1.620378e-09
 1.739962e-09
 1.851112e-09
 1.951923e-09
 2.040768e-09
 2.116346e-09
 2.177711e-09
 2.224276e-09
 2.255799e-09
 2.272357e-09
 2.274309e-09
 2.262248e-09
 2.236952e-09
 2.199340e-09
 2.150420e-09
 2.091252e-09
 2.022909e-09
 1.946452e-09
 1.862899e-09
 1.773213e-09
 1.678286e-09
 1.578935e-09
 1.475893e-09
 1.369809e-09
 1.261253e-09
 1.150716e-09
 1.038615e-09
 9.253005e-10
 8.110606e-10
 6.961294e-10
 5.806932e-10
 4.648977e-10
 3.488548e-10
 2.326497e-10
 1.163475e-10
 0.000000e+00
 0.000000e+00
 7.460624e-11
 1.514371e-10
 2.325928e-10
 3.199302e-10
 4.149537e-10
 5.187216e-10
 6.317735e-10
 7.540828e-10
 8.850390e-10
 1.023462e-09
 1.167650e-09
 1.315454e-09
 1.464385e-09
 1.611736e-09
 1.754712e-09
 1.890566e-09
 2.016727e-09
 2.130898e-09
 2.231151e-09
 2.315975e-09
 2.384304e-09
 2.435525e-09
 2.469446e-09
 2.486263e-09
 2.486502e-09
 2.470958e-09
 2.440637e-09
 2.396687e-09
 2.340347e-09
 2.272896e-09
 2.195610e-09
 2.109727e-09
 2.016425e-09
 1.916801e-09
 1.811859e-09
 1.702505e-09
 1.589541e-09
 1.473670e-09
 1.355497e-09
 1.235535e-09
 1.114214e-09
 9.918840e-10
 8.688280e-10
 7.452666e-10
 6.213680e-10
 4.972555e-10
 3.730154e-10
 2.487049e-10
 1.243594e-10
 0.000000e+00
 0.000000e+00
 7.114953e-11
 1.451388e-10
 2.246541e-10
 3.120808e-10
 4.093669e-10
 5.179049e-10
 6.384386e-10
 7.710000e-10
 9.148845e-10
 1.068667e-09
 1.230258e-09
 1.397006e-09
 1.565830e-09
 1.733377e-09
 1.896196e-09
 2.050913e-09
 2.194391e-09
 2.323863e-09
 2.437040e-09
 2.532172e-09
 2.608078e-09
 2.664138e-09
 2.700254e-09
 2.716793e-09
 2.714511e-09
 2.694471e-09
 2.657965e-09
 2.606430e-09
 2.541386e-09
 2.464371e-09
 2.376896e-09
 2.280407e-09
 2.176257e-09
 2.065690e-09
 1.949828e-09
 1.829668e-09
 1.706081e-09
 1.579818e-09
 1.451515e-09
 1.321701e-09
 1.190809e-09
 1.059184e-09
 9.270918e-10
 7.947336e-10
 6.622506e-10
 5.297360e-10
 3.972428e-10
 2.647927e-10
 1.323841e-10
 0.000000e+00
 0.000000e+00
 6.482739e-11
 1.332639e-10
 2.087307e-10
 2.942787e-10
 3.924190e-10
 5.049731e-10
 6.329520e-10
 7.764727e-10
 9.347208e-10
 1.105967e-09
 1.287636e-09
 1.476438e-09
 1.668536e-09
 1.859758e-09
 2.045821e-09
 2.222562e-09
 2.386140e-09
 2.533215e-09
 2.661070e-09
 2.767690e-09
 2.851786e-09
 2.912772e-09
 2.950703e-09
 2.966195e-09
 2.960314e-09
 2.934476e-09
 2.890334e-09
 2.829686e-09
 2.754391e-09
 2.666294e-09
 2.567180e-09
 2.458728e-09
 2.342486e-09
 2.219853e-09
 2.092074e-09
 1.960237e-09
 1.825277e-09
 1.687988e-09
 1.549028e-09
 1.408931e-09
 1.268126e-09
 1.126938e-09
 9.856125e-10
 8.443171e-10
 7.031583e-10
 5.621899e-10
 4.214233e-10
 2.808365e-10
 1.403829e-10
 0.000000e+00
 0.000000e+00
 5.486459e-11
 1.142968e-10
 1.826356e-10
 2.637686e-10
 3.609211e-10
 4.764661e-10
 6.117670e-10
 7.670637e-10
 9.414173e-10
 1.132722e-09
 1.337791e-09
 1.552518e-09
 1.772100e-09
 1.991317e-09
 2.204825e-09
 2.407457e-09
 2.594499e-09
 2.761905e-09
 2.906456e-09
 3.025851e-09
 3.118713e-09
 3.184553e-09
 3.223668e-09
 3.237026e-09
 3.226115e-09
 3.192807e-09
 3.139218e-09
 3.067588e-09
 2.980185e-09
 2.879217e-09
 2.766781e-09
 2.644816e-09
 2.515080e-09
 2.379136e-09
 2.238352e-09
 2.093903e-09
 1.946781e-09
 1.797810e-09
 1.647658e-09
 1.496855e-09
 1.345809e-09
 1.194819e-09
 1.044092e-09
 8.937552e-10
 7.438684e-10
 5.944365e-10
 4.454199e-10
 2.967443e-10
 1.483098e-10
 0.000000e+00
 0.000000e+00
 4.029596e-11
 8.634737e-11
 1.436354e-10
 2.170963e-10
 3.108611e-10
 4.280145e-10
 5.703876e-10
 7.384012e-10
 9.309807e-10
 1.145557e-09
 1.378171e-09
 1.623670e-09
 1.876011e-09
 2.128616e-09
 2.374779e-09
 2.608058e-09
 2.822634e-09
 3.013602e-09
 3.177157e-09
 3.310692e-09
 3.412796e-09
 3.483168e-09
 3.522479e-09
 3.532189e-09
 3.514355e-09
 3.471441e-09
 3.406145e-09
 3.321255e-09
 3.219523e-09
 3.103582e-09
 2.975880e-09
 2.838642e-09
 2.693848e-09
 2.543227e-09
 2.388266e-09
 2.230214e-09
 2.070109e-09
 1.908789e-09
 1.746918e-09
 1.585004e-09
 1.423420e-09
 1.262424e-09
 1.102171e-09
 9.427341e-10
 7.841161e-10
 6.262620e-10
 4.690714e-10
 3.124082e-10
 1.561106e-10
 0.000000e+00
 0.000000e+00
 1.992604e-11
 4.707034e-11
 8.832747e-11
 1.499447e-10
 2.372021e-10
 3.541064e-10
 5.031158e-10
 6.849212e-10
 8.983119e-10
 1.140156e-09
 1.405513e-09
 1.687891e-09
 1.979634e-09
 2.272403e-09
 2.557724e-09
 2.827514e-09
 3.074566e-09
 3.292915e-09
 3.478078e-09
 3.627151e-09
 3.738772e-09
 3.812978e-09
 3.850991e-09
 3.854964e-09
 3.827712e-09
 3.772468e-09
 3.692662e-09
 3.591742e-09
 3.473039e-09
 3.339670e-09
 3.194474e-09
 3.039982e-09
 2.878401e-09
 2.711621e-09
 2.541233e-09
 2.368547e-09
 2.194622e-09
 2.020293e-09
 1.846198e-09
 1.672803e-09
 1.500429e-09
 1.329271e-09
 1.159422e-09
 9.908848e-10
 8.235922e-10
 6.574182e-10
 4.921911e-10
 3.277036e-10
 1.637230e-10
 0.000000e+00
 0.000000e+00
 -7.716073e-12
 -6.427469e-12
 1.249793e-11
 5.693983e-11
 1.336366e-10
 2.477962e-10
 4.027281e-10
 5.995316e-10
 8.368846e-10
 1.110979e-09
 1.415637e-09
 1.742634e-09
 2.082207e-09
 2.423707e-09
 2.756347e-09
 3.069920e-09
 3.355451e-09
 3.605680e-09
 3.815350e-09
 3.981299e-09
 4.102361e-09
 4.179134e-09
 4.213654e-09
 4.209031e-09
 4.169094e-09
 4.098061e-09
 4.000272e-09
 3.879975e-09
 3.741174e-09
 3.587531e-09
 3.422311e-09
 3.248358e-09
 3.068101e-09
 2.883577e-09
 2.696455e-09
 2.508081e-09
 2.319507e-09
 2.131536e-09
 1.944753e-09
 1.759560e-09
 1.576202e-09
 1.394796e-09
 1.215349e-09
 1.037781e-09
 8.619420e-10
 6.876218e-10
 5.145670e-10
 3.424894e-10
 1.710766e-10
 0.000000e+00
 0.000000e+00
 -4.442473e-11
 -7.768718e-11
 -8.903824e-11
 -6.857556e-11
 -7.709551e-12
 1.003427e-10
 2.600610e-10
 4.731728e-10
 7.383159e-10
 1.050890e-09
 1.403161e-09
 1.784654e-09
 2.182826e-09
 2.583974e-09
 2.974245e-09
 3.340659e-09
 3.671979e-09
 3.959356e-09
 4.196680e-09
 4.380629e-09
 4.510481e-09
 4.587724e-09
 4.615577e-09
 4.598477e-09
 4.541589e-09
 4.450393e-09
 4.330348e-09
 4.186653e-09
 4.024084e-09
 3.846901e-09
 3.658811e-09
 3.462971e-09
 3.262010e-09
 3.058075e-09
 2.852883e-09
 2.647772e-09
 2.443752e-09
 2.241559e-09
 2.041693e-09
 1.844461e-09
 1.650007e-09
 1.458346e-09
 1.269384e-09
 1.082940e-09
 8.987651e-10
 7.165544e-10
 5.359614e-10
 3.566078e-10
 1.780926e-10
 0.000000e+00
 0.000000e+00
 -9.236390e-11
 -1.709984e-10
 -2.226061e-10
 -2.347952e-10
 -1.966270e-10
 -9.923896e-11
 6.348047e-11
 2.942358e-10
 5.917854e-10
 9.506403e-10
 1.361114e-09
 1.809794e-09
 2.280448e-09
 2.755265e-09
 3.216299e-09
 3.646897e-09
 4.032913e-09
 4.363560e-09
 4.631821e-09
 4.834430e-09
 4.971498e-09
 5.045904e-09
 5.062575e-09
 5.027761e-09
 4.948387e-09
 4.831527e-09
 4.684001e-09
 4.512119e-09
 4.321514e-09
 4.117083e-09
 3.902974e-09
 3.682624e-09
 3.458819e-09
 3.233768e-09
 3.009176e-09
 2.786325e-09
 2.566133e-09
 2.349223e-09
 2.135973e-09
 1.926561e-09
 1.721002e-09
 1.519184e-09
 1.320890e-09
 1.125821e-09
 9.336169e-10
 7.438640e-10
 5.561128e-10
 3.698856e-10
 1.846847e-10
 0.000000e+00
 0.000000e+00
 -1.541032e-10
 -2.914855e-10
 -3.958321e-10
 -4.517169e-10
 -4.452228e-10
 -3.647231e-10
 -2.018003e-10
 4.778678e-11
 3.832378e-10
 7.981386e-10
 1.280378e-09
 1.812695e-09
 2.373884e-09
 2.940559e-09
 3.489218e-09
 3.998291e-09
 4.449858e-09
 4.830785e-09
 5.133184e-09
 5.354236e-09
 5.495518e-09
 5.562038e-09
 5.561166e-09
 5.501623e-09
 5.392628e-09
 5.243237e-09
 5.061898e-09
 4.856180e-09
 4.632645e-09
 4.396824e-09
 4.153269e-09
 3.905636e-09
 3.656792e-09
 3.408929e-09
 3.163670e-09
 2.922168e-09
 2.685190e-09
 2.453195e-09
 2.226389e-09
 2.004785e-09
 1.788239e-09
 1.576483e-09
 1.369159e-09
 1.165831e-09
 9.660108e-10
 7.691672e-10
 5.747370e-10
 3.821348e-10
 1.907595e-10
 0.000000e+00
 0.000000e+00
 -2.326287e-10
 -4.451525e-10
 -6.177665e-10
 -7.313953e-10
 -7.683574e-10
 -7.133288e-10
 -5.545939e-10
 -2.854756e-10
 9.427293e-11
 5.774209e-10
 1.148893e-09
 1.786349e-09
 2.461815e-09
 3.144203e-09
 3.802346e-09
 4.408007e-09
 4.938335e-09
 5.377397e-09
 5.716636e-09
 5.954386e-09
 6.094692e-09
 6.145784e-09
 6.118504e-09
 6.024907e-09
 5.877157e-09
 5.686744e-09
 5.464004e-09
 5.217887e-09
 4.955896e-09
 4.684151e-09
 4.407512e-09
 4.129746e-09
 3.853689e-09
 3.581408e-09
 3.314344e-09
 3.053436e-09
 2.799225e-09
 2.551943e-09
 2.311578e-09
 2.077933e-09
 1.850669e-09
 1.629340e-09