<VTKFile type="UnstructuredGrid"  version="0.1"   >
<UnstructuredGrid>  
<Piece  NumberOfPoints="     2601"  NumberOfCells="     5000">  
<Points>  
<DataArray  type="Float64"  NumberOfComponents="3"  format="ascii">  
 0.000000 0.000000 0.000000 
 0.020000 0.000000 0.000000 
 0.040000 0.000000 0.000000 
 0.060000 0.000000 0.000000 
 0.080000 0.000000 0.000000 
 0.100000 0.000000 0.000000 
 0.120000 0.000000 0.000000 
 0.140000 0.000000 0.000000 
 0.160000 0.000000 0.000000 
 0.180000 0.000000 0.000000 
 0.200000 0.000000 0.000000 
 0.220000 0.000000 0.000000 
 0.240000 0.000000 0.000000 
 0.260000 0.000000 0.000000 
 0.280000 0.000000 0.000000 
 0.300000 0.000000 0.000000 
 0.320000 0.000000 0.000000 
 0.340000 0.000000 0.000000 
 0.360000 0.000000 0.000000 
 0.380000 0.000000 0.000000 
 0.400000 0.000000 0.000000 
 0.420000 0.000000 0.000000 
 0.440000 0.000000 0.000000 
 0.460000 0.000000 0.000000 
 0.480000 0.000000 0.000000 
 0.500000 0.000000 0.000000 
 0.520000 0.000000 0.000000 
 0.540000 0.000000 0.000000 
 0.560000 0.000000 0.000000 
 0.580000 0.000000 0.000000 
 0.600000 0.000000 0.000000 
 0.620000 0.000000 0.000000 
 0.640000 0.000000 0.000000 
 0.660000 0.000000 0.000000 
 0.680000 0.000000 0.000000 
 0.700000 0.000000 0.000000 
 0.720000 0.000000 0.000000 
 0.740000 0.000000 0.000000 
 0.760000 0.000000 0.000000 
 0.780000 0.000000 0.000000 
 0.800000 0.000000 0.000000 
 0.820000 0.000000 0.000000 
 0.840000 0.000000 0.000000 
 0.860000 0.000000 0.000000 
 0.880000 0.000000 0.000000 
 0.900000 0.000000 0.000000 
 0.920000 0.000000 0.000000 
 0.940000 0.000000 0.000000 
 0.960000 0.000000 0.000000 
 0.980000 0.000000 0.000000 
 1.000000 0.000000 0.000000 
 0.000000 0.020000 0.000000 
 0.020000 0.020000 0.000000 
 0.040000 0.020000 0.000000 
 0.060000 0.020000 0.000000 
 0.080000 0.020000 0.000000 
 0.100000 0.020000 0.000000 
 0.120000 0.020000 0.000000 
 0.140000 0.020000 0.000000 
 0.160000 0.020000 0.000000 
 0.180000 0.020000 0.000000 
 0.200000 0.020000 0.000000 
 0.220000 0.020000 0.000000 
 0.240000 0.020000 0.000000 
 0.260000 0.020000 0.000000 
 0.280000 0.020000 0.000000 
 0.300000 0.020000 0.000000 
 0.320000 0.020000 0.000000 
 0.340000 0.020000 0.000000 
 0.360000 0.020000 0.000000 
 0.380000 0.020000 0.000000 
 0.400000 0.020000 0.000000 
 0.420000 0.020000 0.000000 
 0.440000 0.020000 0.000000 
 0.460000 0.020000 0.000000 
 0.480000 0.020000 0.000000 
 0.500000 0.020000 0.000000 
 0.520000 0.020000 0.000000 
 0.540000 0.020000 0.000000 
 0.560000 0.020000 0.000000 
 0.580000 0.020000 0.000000 
 0.600000 0.020000 0.000000 
 0.620000 0.020000 0.000000 
 0.640000 0.020000 0.000000 
 0.660000 0.020000 0.000000 
 0.680000 0.020000 0.000000 
 0.700000 0.020000 0.000000 
 0.720000 0.020000 0.000000 
 0.740000 0.020000 0.000000 
 0.760000 0.020000 0.000000 
 0.780000 0.020000 0.000000 
 0.800000 0.020000 0.000000 
 0.820000 0.020000 0.000000 
 0.840000 0.020000 0.000000 
 0.860000 0.020000 0.000000 
 0.880000 0.020000 0.000000 
 0.900000 0.020000 0.000000 
 0.920000 0.020000 0.000000 
 0.940000 0.020000 0.000000 
 0.960000 0.020000 0.000000 
 0.980000 0.020000 0.000000 
 1.000000 0.020000 0.000000 
 0.000000 0.040000 0.000000 
 0.020000 0.040000 0.000000 
 0.040000 0.040000 0.000000 
 0.060000 0.040000 0.000000 
 0.080000 0.040000 0.000000 
 0.100000 0.040000 0.000000 
 0.120000 0.040000 0.000000 
 0.140000 0.040000 0.000000 
 0.160000 0.040000 0.000000 
 0.180000 0.040000 0.000000 
 0.200000 0.040000 0.000000 
 0.220000 0.040000 0.000000 
 0.240000 0.040000 0.000000 
 0.260000 0.040000 0.000000 
 0.280000 0.040000 0.000000 
 0.300000 0.040000 0.000000 
 0.320000 0.040000 0.000000 
 0.340000 0.040000 0.000000 
 0.360000 0.040000 0.000000 
 0.380000 0.040000 0.000000 
 0.400000 0.040000 0.000000 
 0.420000 0.040000 0.000000 
 0.440000 0.040000 0.000000 
 0.460000 0.040000 0.000000 
 0.480000 0.040000 0.000000 
 0.500000 0.040000 0.000000 
 0.520000 0.040000 0.000000 
 0.540000 0.040000 0.000000 
 0.560000 0.040000 0.000000 
 0.580000 0.040000 0.000000 
 0.600000 0.040000 0.000000 
 0.620000 0.040000 0.000000 
 0.640000 0.040000 0.000000 
 0.660000 0.040000 0.000000 
 0.680000 0.040000 0.000000 
 0.700000 0.040000 0.000000 
 0.720000 0.040000 0.000000 
 0.740000 0.040000 0.000000 
 0.760000 0.040000 0.000000 
 0.780000 0.040000 0.000000 
 0.800000 0.040000 0.000000 
 0.820000 0.040000 0.000000 
 0.840000 0.040000 0.000000 
 0.860000 0.040000 0.000000 
 0.880000 0.040000 0.000000 
 0.900000 0.040000 0.000000 
 0.920000 0.040000 0.000000 
 0.940000 0.040000 0.000000 
 0.960000 0.040000 0.000000 
 0.980000 0.040000 0.000000 
 1.000000 0.040000 0.000000 
 0.000000 0.060000 0.000000 
 0.020000 0.060000 0.000000 
 0.040000 0.060000 0.000000 
 0.060000 0.060000 0.000000 
 0.080000 0.060000 0.000000 
 0.100000 0.060000 0.000000 
 0.120000 0.060000 0.000000 
 0.140000 0.060000 0.000000 
 0.160000 0.060000 0.000000 
 0.180000 0.060000 0.000000 
 0.200000 0.060000 0.000000 
 0.220000 0.060000 0.000000 
 0.240000 0.060000 0.000000 
 0.260000 0.060000 0.000000 
 0.280000 0.060000 0.000000 
 0.300000 0.060000 0.000000 
 0.320000 0.060000 0.000000 
 0.340000 0.060000 0.000000 
 0.360000 0.060000 0.000000 
 0.380000 0.060000 0.000000 
 0.400000 0.060000 0.000000 
 0.420000 0.060000 0.000000 
 0.440000 0.060000 0.000000 
 0.460000 0.060000 0.000000 
 0.480000 0.060000 0.000000 
 0.500000 0.060000 0.000000 
 0.520000 0.060000 0.000000 
 0.540000 0.060000 0.000000 
 0.560000 0.060000 0.000000 
 0.580000 0.060000 0.000000 
 0.600000 0.060000 0.000000 
 0.620000 0.060000 0.000000 
 0.640000 0.060000 0.000000 
 0.660000 0.060000 0.000000 
 0.680000 0.060000 0.000000 
 0.700000 0.060000 0.000000 
 0.720000 0.060000 0.000000 
 0.740000 0.060000 0.000000 
 0.760000 0.060000 0.000000 
 0.780000 0.060000 0.000000 
 0.800000 0.060000 0.000000 
 0.820000 0.060000 0.000000 
 0.840000 0.060000 0.000000 
 0.860000 0.060000 0.000000 
 0.880000 0.060000 0.000000 
 0.900000 0.060000 0.000000 
 0.920000 0.060000 0.000000 
 0.940000 0.060000 0.000000 
 0.960000 0.060000 0.000000 
 0.980000 0.060000 0.000000 
 1.000000 0.060000 0.000000 
 0.000000 0.080000 0.000000 
 0.020000 0.080000 0.000000 
 0.040000 0.080000 0.000000 
 0.060000 0.080000 0.000000 
 0.080000 0.080000 0.000000 
 0.100000 0.080000 0.000000 
 0.120000 0.080000 0.000000 
 0.140000 0.080000 0.000000 
 0.160000 0.080000 0.000000 
 0.180000 0.080000 0.000000 
 0.200000 0.080000 0.000000 
 0.220000 0.080000 0.000000 
 0.240000 0.080000 0.000000 
 0.260000 0.080000 0.000000 
 0.280000 0.080000 0.000000 
 0.300000 0.080000 0.000000 
 0.320000 0.080000 0.000000 
 0.340000 0.080000 0.000000 
 0.360000 0.080000 0.000000 
 0.380000 0.080000 0.000000 
 0.400000 0.080000 0.000000 
 0.420000 0.080000 0.000000 
 0.440000 0.080000 0.000000 
 0.460000 0.080000 0.000000 
 0.480000 0.080000 0.000000 
 0.500000 0.080000 0.000000 
 0.520000 0.080000 0.000000 
 0.540000 0.080000 0.000000 
 0.560000 0.080000 0.000000 
 0.580000 0.080000 0.000000 
 0.600000 0.080000 0.000000 
 0.620000 0.080000 0.000000 
 0.640000 0.080000 0.000000 
 0.660000 0.080000 0.000000 
 0.680000 0.080000 0.000000 
 0.700000 0.080000 0.000000 
 0.720000 0.080000 0.000000 
 0.740000 0.080000 0.000000 
 0.760000 0.080000 0.000000 
 0.780000 0.080000 0.000000 
 0.800000 0.080000 0.000000 
 0.820000 0.080000 0.000000 
 0.840000 0.080000 0.000000 
 0.860000 0.080000 0.000000 
 0.880000 0.080000 0.000000 
 0.900000 0.080000 0.000000 
 0.920000 0.080000 0.000000 
 0.940000 0.080000 0.000000 
 0.960000 0.080000 0.000000 
 0.980000 0.080000 0.000000 
 1.000000 0.080000 0.000000 
 0.000000 0.100000 0.000000 
 0.020000 0.100000 0.000000 
 0.040000 0.100000 0.000000 
 0.060000 0.100000 0.000000 
 0.080000 0.100000 0.000000 
 0.100000 0.100000 0.000000 
 0.120000 0.100000 0.000000 
 0.140000 0.100000 0.000000 
 0.160000 0.100000 0.000000 
 0.180000 0.100000 0.000000 
 0.200000 0.100000 0.000000 
 0.220000 0.100000 0.000000 
 0.240000 0.100000 0.000000 
 0.260000 0.100000 0.000000 
 0.280000 0.100000 0.000000 
 0.300000 0.100000 0.000000 
 0.320000 0.100000 0.000000 
 0.340000 0.100000 0.000000 
 0.360000 0.100000 0.000000 
 0.380000 0.100000 0.000000 
 0.400000 0.100000 0.000000 
 0.420000 0.100000 0.000000 
 0.440000 0.100000 0.000000 
 0.460000 0.100000 0.000000 
 0.480000 0.100000 0.000000 
 0.500000 0.100000 0.000000 
 0.520000 0.100000 0.000000 
 0.540000 0.100000 0.000000 
 0.560000 0.100000 0.000000 
 0.580000 0.100000 0.000000 
 0.600000 0.100000 0.000000 
 0.620000 0.100000 0.000000 
 0.640000 0.100000 0.000000 
 0.660000 0.100000 0.000000 
 0.680000 0.100000 0.000000 
 0.700000 0.100000 0.000000 
 0.720000 0.100000 0.000000 
 0.740000 0.100000 0.000000 
 0.760000 0.100000 0.000000 
 0.780000 0.100000 0.000000 
 0.800000 0.100000 0.000000 
 0.820000 0.100000 0.000000 
 0.840000 0.100000 0.000000 
 0.860000 0.100000 0.000000 
 0.880000 0.100000 0.000000 
 0.900000 0.100000 0.000000 
 0.920000 0.100000 0.000000 
 0.940000 0.100000 0.000000 
 0.960000 0.100000 0.000000 
 0.980000 0.100000 0.000000 
 1.000000 0.100000 0.000000 
 0.000000 0.120000 0.000000 
 0.020000 0.120000 0.000000 
 0.040000 0.120000 0.000000 
 0.060000 0.120000 0.000000 
 0.080000 0.120000 0.000000 
 0.100000 0.120000 0.000000 
 0.120000 0.120000 0.000000 
 0.140000 0.120000 0.000000 
 0.160000 0.120000 0.000000 
 0.180000 0.120000 0.000000 
 0.200000 0.120000 0.000000 
 0.220000 0.120000 0.000000 
 0.240000 0.120000 0.000000 
 0.260000 0.120000 0.000000 
 0.280000 0.120000 0.000000 
 0.300000 0.120000 0.000000 
 0.320000 0.120000 0.000000 
 0.340000 0.120000 0.000000 
 0.360000 0.120000 0.000000 
 0.380000 0.120000 0.000000 
 0.400000 0.120000 0.000000 
 0.420000 0.120000 0.000000 
 0.440000 0.120000 0.000000 
 0.460000 0.120000 0.000000 
 0.480000 0.120000 0.000000 
 0.500000 0.120000 0.000000 
 0.520000 0.120000 0.000000 
 0.540000 0.120000 0.000000 
 0.560000 0.120000 0.000000 
 0.580000 0.120000 0.000000 
 0.600000 0.120000 0.000000 
[...]
<PointData  Scalars="U"> 
<DataArray  type="Float64"  Name="U"  format="ascii"> 
 0.000000e+00
 0.000000e+00
 0.000000e+00
 0.000000e+00
 0.000000e+00
 0.000000e+00
 0.000000e+00
 0.000000e+00
 0.000000e+00
 0.000000e+00
 0.000000e+00
 0.000000e+00
 0.000000e+00
 0.000000e+00
 0.000000e+00
 0.000000e+00
 0.000000e+00
 0.000000e+00
 0.000000e+00
 0.000000e+00
 0.000000e+00
 0.000000e+00
 0.000000e+00
 0.000000e+00
 0.000000e+00
 0.000000e+00
 0.000000e+00
 0.000000e+00
 0.000000e+00
 0.000000e+00
 0.000000e+00
 0.000000e+00
 0.000000e+00
 0.000000e+00
 0.000000e+00
 0.000000e+00
 0.000000e+00
 0.000000e+00
 0.000000e+00
 0.000000e+00
 0.000000e+00
 0.000000e+00
 0.000000e+00
 0.000000e+00
 0.000000e+00
 0.000000e+00
 0.000000e+00
 0.000000e+00
 0.000000e+00
 0.000000e+00
 0.000000e+00
 0.000000e+00
 -8.809866e-10
 -1.791182e-09
 -2.753508e-09
 -3.780525e-09
 -4.873837e-09
 -6.026707e-09
 -7.228056e-09
 -8.465314e-09
 -9.724117e-09
 -1.098442e-08
 -1.221437e-08
 -1.336453e-08
 -1.436553e-08
 -1.513225e-08
 -1.557666e-08
 -1.562944e-08
 -1.526551e-08
 -1.452374e-08
 -1.350841e-08
 -1.236678e-08
 -1.124957e-08
 -1.027195e-08
 -9.491861e-09
 -8.911337e-09
 -8.494060e-09
 -8.187431e-09
 -7.940147e-09
 -7.711962e-09
 -7.476631e-09
 -7.220679e-09
 -6.940445e-09
 -6.638883e-09
 -6.322799e-09
 -6.000638e-09
 -5.680717e-09
 -5.369794e-09
 -5.071918e-09
 -4.787614e-09
 -4.513530e-09
 -4.242661e-09
 -3.965205e-09
 -3.669953e-09
 -3.345988e-09
 -2.984346e-09
 -2.579308e-09
 -2.129034e-09
 -1.635163e-09
 -1.099932e-09
 -5.118495e-10
 0.000000e+00
 0.000000e+00
 -1.731651e-09
 -3.528400e-09
 -5.440403e-09
 -7.493323e-09
 -9.687429e-09
 -1.200478e-08
 -1.442001e-08
 -1.690821e-08
 -1.944476e-08
 -2.199617e-08
 -2.450503e-08
 -2.687533e-08
 -2.896460e-08
 -3.058977e-08
 -3.155251e-08
 -3.168674e-08
 -3.092051e-08
 -2.932874e-08
 -2.714369e-08
 -2.470267e-08
 -2.234932e-08
 -2.033658e-08
 -1.877766e-08
 -1.765687e-08
 -1.687793e-08
 -1.631756e-08
 -1.586364e-08
 -1.543324e-08
 -1.497552e-08
 -1.446673e-08
 -1.390284e-08
 -1.329255e-08
 -1.265164e-08
 -1.199877e-08
 -1.135198e-08
 -1.072594e-08
 -1.012960e-08
 -9.564382e-09
 -9.023364e-09
 -8.491668e-09
 -7.948254e-09
 -7.368955e-09
 -6.730213e-09
 -6.012760e-09
 -5.204482e-09
 -4.301954e-09
 -3.310502e-09
 -2.243431e-09
 -1.126370e-09
 0.000000e+00
 0.000000e+00
 -2.514566e-09
 -5.146026e-09
 -7.981902e-09
 -1.106179e-08
 -1.437662e-08
 -1.788530e-08
 -2.153934e-08
 -2.530142e-08
 -2.914656e-08
 -3.304382e-08
 -3.692615e-08
 -4.065982e-08
 -4.402457e-08
 -4.671461e-08
 -4.837275e-08
 -4.867024e-08
 -4.742919e-08
 -4.474603e-08
 -4.103591e-08
 -3.693424e-08
 -3.308334e-08
 -2.992483e-08
 -2.761181e-08
 -2.605656e-08
 -2.504569e-08
 -2.434652e-08
 -2.376917e-08
 -2.318642e-08
 -2.252873e-08
 -2.176996e-08
 -2.091280e-08
 -1.997726e-08
 -1.899236e-08
 -1.799024e-08
 -1.700150e-08
 -1.605112e-08
 -1.515473e-08
 -1.431558e-08
 -1.352281e-08
 -1.275185e-08
 -1.196729e-08
 -1.112814e-08
 -1.019438e-08
 -9.133491e-09
 -7.925399e-09
 -6.565086e-09
 -5.062783e-09
 -3.442672e-09
 -1.740918e-09
 0.000000e+00
 0.000000e+00
 -3.175378e-09
 -6.550712e-09
 -1.027075e-08
 -1.438972e-08
 -1.887093e-08
 -2.362284e-08
 -2.855325e-08
 -3.361096e-08
 -3.879021e-08
 -4.409500e-08
 -4.948095e-08
 -5.479805e-08
 -5.974935e-08
 -6.387470e-08
 -6.657854e-08
 -6.724022e-08
 -6.543755e-08
 -6.123072e-08
 -5.532061e-08
 -4.887771e-08
 -4.307266e-08
 -3.862558e-08
 -3.566771e-08
 -3.391008e-08
 -3.291010e-08
 -3.226480e-08
 -3.168994e-08
 -3.102176e-08
 -3.018773e-08
 -2.917436e-08
 -2.800260e-08
 -2.671181e-08
 -2.535001e-08
 -2.396738e-08
 -2.261110e-08
 -2.132021e-08
 -2.012022e-08
 -1.901803e-08
 -1.799859e-08
 -1.702466e-08
 -1.604109e-08
 -1.498322e-08
 -1.378783e-08
 -1.240400e-08
 -1.080113e-08
 -8.972531e-09
 -6.934949e-09
 -4.724904e-09
 -2.393466e-09
 0.000000e+00
 0.000000e+00
 -3.626462e-09
 -7.594566e-09
 -1.214442e-08
 -1.734569e-08
 -2.309481e-08
 -2.918986e-08
 -3.544867e-08
 -4.180122e-08
 -4.830018e-08
 -5.504692e-08
 -6.207946e-08
 -6.927379e-08
 -7.627524e-08
 -8.244860e-08
 -8.685710e-08
 -8.835822e-08
 -8.596725e-08
 -7.950695e-08
 -7.013747e-08
 -6.009782e-08
 -5.159625e-08
 -4.576473e-08
 -4.250054e-08
 -4.101607e-08
 -4.044176e-08
 -4.013348e-08
 -3.971924e-08
 -3.903253e-08
 -3.803155e-08
 -3.674006e-08
 -3.521275e-08
 -3.351772e-08
 -3.172801e-08
 -2.991682e-08
 -2.815304e-08
 -2.649526e-08
 -2.498414e-08
 -2.363394e-08
 -2.242572e-08
 -2.130544e-08
 -2.018945e-08
 -1.897794e-08
 -1.757322e-08
 -1.589769e-08
 -1.390655e-08
 -1.159230e-08
 -8.982032e-09
 -6.129912e-09
 -3.108360e-09
 0.000000e+00
 0.000000e+00
 -3.718109e-09
 -8.026328e-09
 -1.333539e-08
 -1.973603e-08
 -2.697681e-08
 -3.461437e-08
 -4.227342e-08
 -4.985425e-08
 -5.755126e-08
 -6.568502e-08
 -7.447730e-08
 -8.389525e-08
 -9.357617e-08
 -1.027452e-07
 -1.100591e-07
 -1.135042e-07
 -1.108143e-07
 -1.009020e-07
 -8.561695e-08
 -6.956961e-08
 -5.722203e-08
 -5.022314e-08
 -4.755021e-08
 -4.725709e-08
 -4.775554e-08
 -4.814247e-08
 -4.804102e-08
 -4.736778e-08
 -4.617058e-08
 -4.454355e-08
 -4.259138e-08
 -4.041834e-08
 -3.812679e-08
 -3.581721e-08
 -3.358602e-08
 -3.151922e-08
 -2.968147e-08
 -2.810177e-08
 -2.675977e-08
 -2.557907e-08
 -2.443368e-08
 -2.316940e-08
 -2.163510e-08
 -1.971345e-08
 -1.734095e-08
 -1.451266e-08
 -1.127398e-08
 -7.705994e-09
 -3.910698e-09
 0.000000e+00
 0.000000e+00
 -3.188977e-09
 -7.400537e-09
 -1.337230e-08
 -2.125066e-08
 -3.047497e-08
 -4.006933e-08
 -4.923130e-08
 -5.781367e-08
 -6.634655e-08
 -7.561939e-08
 -8.619475e-08
 -9.818797e-08
 -1.112947e-07
 -1.247717e-07
 -1.370541e-07
 -1.449611e-07
 -1.434337e-07
 -1.282310e-07
 -1.018242e-07
 -7.477009e-08
 -5.700667e-08
 -5.022524e-08
 -5.031052e-08
 -5.283310e-08
 -5.526919e-08
 -5.668619e-08
 -5.695425e-08
 -5.623335e-08
 -5.474056e-08
 -5.267187e-08
 -5.019052e-08
 -4.743724e-08
 -4.454304e-08
 -4.163762e-08
 -3.885114e-08
 -3.630817e-08
 -3.411234e-08
 -3.232219e-08
 -3.092379e-08
 -2.981240e-08
 -2.879733e-08
 -2.763684e-08
 -2.609376e-08
 -2.399020e-08
 -2.123973e-08
 -1.784932e-08
 -1.389858e-08
 -9.510905e-09
 -4.828931e-09
 0.000000e+00
 0.000000e+00
 -1.591946e-09
 -4.910845e-09
 -1.137152e-08
 -2.134027e-08
 -3.363518e-08
 -4.608070e-08
 -5.689591e-08
 -6.586743e-08
 -7.435465e-08
 -8.416843e-08
 -9.642565e-08
 -1.113051e-07
 -1.285212e-07
 -1.477194e-07
 -1.680248e-07
 -1.858462e-07
 -1.909711e-07
 -1.685123e-07
 -1.185287e-07
 -6.891335e-08
 -4.477880e-08
 -4.344260e-08
 -5.102197e-08
 -5.876548e-08
 -6.392509e-08
 -6.641915e-08
 -6.686194e-08
 -6.586564e-08
 -6.388049e-08
 -6.120910e-08
 -5.806013e-08
 -5.459701e-08
 -5.097080e-08
 -4.733841e-08
 -4.386953e-08
 -4.074259e-08
 -3.812523e-08
 -3.613503e-08
 -3.478558e-08
 -3.394024e-08
 -3.330722e-08
 -3.249742e-08
 -3.112906e-08
 -2.893010e-08
 -2.579076e-08
 -2.175346e-08
 -1.696304e-08
 -1.161061e-08
 -5.893900e-09
 0.000000e+00
 0.000000e+00
 1.764946e-09
 9.011106e-10
 -5.568995e-09
 -1.891070e-08
 -3.671697e-08
 -5.402126e-08
 -6.670396e-08
 -7.448028e-08
 -8.088877e-08
 -9.009493e-08
 -1.039601e-07
 -1.220971e-07
 -1.437253e-07
 -1.691884e-07
 -2.002898e-07
 -2.379369e-07
 -2.685709e-07
 -2.428402e-07
 -1.341335e-07
 -3.119946e-08
 -8.194276e-09
 -2.915360e-08
 -5.262210e-08
 -6.766477e-08
 -7.532804e-08
 -7.819022e-08
 -7.817782e-08
 -7.646146e-08
 -7.369127e-08
 -7.021684e-08
 -6.624224e-08
 -6.192114e-08
 -5.740717e-08
 -5.287757e-08
 -4.854479e-08
 -4.465959e-08
 -4.149347e-08
 -3.928087e-08
 -3.811548e-08
 -3.783803e-08
 -3.799519e-08
 -3.793643e-08
 -3.702393e-08
 -3.483692e-08
 -3.125690e-08
 -2.641790e-08
 -2.058992e-08
 -1.407234e-08
 -7.134144e-09
 0.000000e+00
 0.000000e+00
 7.591612e-09
 1.260666e-08
 7.826987e-09
 -1.151894e-08
 -4.045360e-08
 -6.731655e-08
 -8.216783e-08
 -8.455344e-08
 -8.413288e-08
 -9.093507e-08
 -1.071760e-07
 -1.296178e-07
 -1.553870e-07
 -1.850878e-07
 -2.245466e-07
 -2.883562e-07
 -4.029426e-07
 -4.299409e-07
 -1.397310e-07
 1.138934e-07
 6.844015e-08
 -1.865614e-08
 -6.405095e-08
 -8.401259e-08
 -9.138454e-08
 -9.270511e-08
 -9.111229e-08
 -8.806297e-08
 -8.418373e-08
 -7.971762e-08
 -7.477156e-08
 -6.944233e-08
 -6.386522e-08
 -5.822680e-08
 -5.277712e-08
 -4.785279e-08
 -4.388526e-08
 -4.133531e-08
 -4.050410e-08
 -4.126465e-08
 -4.290142e-08
 -4.426920e-08
 -4.424788e-08
 -4.218069e-08
 -3.800419e-08
 -3.207474e-08
 -2.489998e-08
 -1.694647e-08
 -8.565211e-09
 0.000000e+00
 0.000000e+00
 1.472875e-08
 3.452969e-08
 3.781100e-08
 6.700769e-09
 -4.655775e-08
 -9.439984e-08
 -1.121822e-07
 -9.743071e-08
 -7.844703e-08
 -8.135448e-08
 -1.043723e-07
 -1.344325e-07
 -1.639276e-07
 -1.925890e-07
 -2.269682e-07
 -2.884102e-07
 -4.559504e-07
 -1.518391e-06
 -1.912119e-07
 7.300483e-07
 1.011766e-07
 -5.377076e-08
 -9.934237e-08
 -1.118971e-07
 -1.129700e-07
 -1.098758e-07
 -1.053748e-07
 -1.004355e-07
 -9.524362e-08
 -8.969883e-08
 -8.369145e-08
 -7.721987e-08
 -7.039464e-08
 -6.340196e-08
 -5.650197e-08
 -5.009795e-08
 -4.483590e-08
 -4.159691e-08
 -4.119276e-08
 -4.373348e-08
 -4.808139e-08
 -5.207864e-08
 -5.362610e-08
 -5.170601e-08
 -4.652680e-08
 -3.896643e-08
 -2.996723e-08
 -2.022952e-08
 -1.016997e-08
 0.000000e+00
 0.000000e+00
 9.883635e-09
 7.394860e-08
 1.089114e-07
 4.930803e-08
 -5.843876e-08
 -1.552619e-07
 -1.816632e-07
 -1.138654e-07
 -4.445812e-08
 -5.008181e-08
 -9.597765e-08
 -1.410497e-07
 -1.742390e-07
 -1.962067e-07
 -2.088463e-07
 -2.121452e-07
 -1.981881e-07
 -2.235055e-07
 1.724215e-05
 -2.076577e-07
 -1.680278e-07
 -1.708076e-07
 -1.612586e-07
 -1.494618e-07
 -1.381001e-07
 -1.281909e-07
 -1.199559e-07
 -1.130184e-07
 -1.066593e-07
 -1.001640e-07
 -9.309537e-08
 -8.536250e-08
 -7.710153e-08
 -6.850694e-08
 -5.977389e-08
 -5.124914e-08
 -4.376348e-08
 -3.890640e-08
 -3.870393e-08
 -4.419524e-08
 -5.362395e-08
 -6.254872e-08
 -6.669800e-08
 -6.460121e-08
 -5.743098e-08
 -4.724889e-08
 -3.572273e-08
 -2.379981e-08
 -1.186857e-08
 0.000000e+00
 0.000000e+00
 -8.516585e-08
 1.490970e-07
 3.019111e-07
 1.359867e-07
 -7.964433e-08
 -2.884393e-07
 -3.750885e-07
 -1.274028e-07
 9.222904e-08
 1.768642e-08
 -9.463054e-08
 -1.609148e-07
 -1.958082e-07
 -2.088754e-07
 -1.992314e-07
 -1.488448e-07
 1.640400e-08
 6.593379e-07
 -2.456546e-07
 -1.555879e-06
 -4.772974e-07
 -2.959449e-07
 -2.246800e-07
 -1.863916e-07
 -1.616545e-07
 -1.447282e-07
 -1.331793e-07
 -1.250258e-07
 -1.182638e-07
 -1.112660e-07
 -1.032029e-07
 -9.403954e-08
 -8.413581e-08
 -7.376966e-08
 -6.291816e-08
 -5.150344e-08
 -4.017168e-08
 -3.141878e-08
 -2.999532e-08
 -4.017049e-08
 -5.970793e-08
 -7.836330e-08
 -8.650338e-08
 -8.269435e-08
 -7.125057e-08
 -5.674291e-08
 -4.178108e-08
 -2.732769e-08
 -1.348377e-08
 0.000000e+00
 0.000000e+00
 -1.080463e-06
 2.419988e-07
 9.795046e-07
 1.789666e-07
 -1.124088e-07
 -3.726987e-07
 -1.485501e-06
 -1.945851e-07
 6.954730e-07
 3.791895e-08
 -1.430515e-07
 -2.103680e-07
 -2.376020e-07
 -2.420141e-07
 -2.237797e-07
 -1.728773e-07
 -7.468237e-08
 -1.388243e-08
 -2.493006e-07
 -5.199486e-07
 -4.734919e-07
 -3.408281e-07
 -2.616667e-07
 -2.114556e-07
 -1.777988e-07
 -1.559072e-07
 -1.429812e-07
 -1.357053e-07
 -1.302516e-07
 -1.235784e-07
 -1.144782e-07
 -1.034355e-07
 -9.156886e-08
 -7.949298e-08
 -6.673324e-08
 -5.199334e-08
 -3.446888e-08
 -1.666649e-08
 -8.479668e-09
 -2.504673e-08
 -6.682147e-08
 -1.064510e-07
 -1.192784e-07
 -1.083306e-07
 -8.773646e-08
 -6.641193e-08
 -4.719804e-08
 -3.019554e-08
 -1.472375e-08
 0.000000e+00
 0.000000e+00
 6.894000e-08
 1.817188e-05
 7.564024e-09
 -1.219628e-07
 -1.749772e-07
 -1.803465e-07
 -2.241473e-07
 1.721891e-05
 -2.572740e-07
 -2.462211e-07
 -2.774929e-07
 -2.932912e-07
 -2.999895e-07
 -2.962393e-07
 -2.792671e-07
 -2.480738e-07
 -2.139291e-07
 -2.189274e-07
 -3.001786e-07
 -3.852206e-07
 -3.869421e-07
 -3.327287e-07
 -2.723148e-07
 -2.211544e-07
 -1.824173e-07
 -1.579626e-07
 -1.470090e-07
 -1.447041e-07
 -1.438043e-07
 -1.386278e-07
 -1.278023e-07
 -1.135545e-07
 -9.900512e-08
 -8.573557e-08
 -7.257132e-08
 -5.575279e-08
 -3.037231e-08
 6.112734e-09
 4.022794e-08
 2.180557e-08
 -7.679513e-08
 -1.676979e-07
 -1.773701e-07
 -1.421910e-07
 -1.038883e-07
 -7.357525e-08
 -5.030802e-08
 -3.152865e-08
 -1.522536e-08
 0.000000e+00
 0.000000e+00
 1.791668e-05
 -5.622253e-07
 -1.736628e-06
 -5.452898e-07
 -2.681114e-07
 -2.920472e-08
 6.298702e-07
 -2.848518e-07
 -1.618225e-06
 -5.703736e-07
 -4.230660e-07
 -3.845164e-07
 -3.726369e-07
 -3.638149e-07
 -3.504250e-07
 -3.325653e-07
 -3.180344e-07
 -3.203840e-07
 -3.430347e-07
 -3.634242e-07
 -3.566106e-07
 -3.224339e-07
 -2.727285e-07
 -2.184659e-07
 -1.722793e-07
 -1.457375e-07
 -1.419099e-07
 -1.525983e-07
 -1.624716e-07
 -1.599835e-07
 -1.446811e-07
 -1.236822e-07
 -1.046621e-07
 -9.140731e-08
 -8.184023e-08
 -6.828551e-08
 -3.912348e-08
 2.242871e-08
 1.418553e-07
 1.786674e-07
 -9.865675e-08
 -3.375901e-07
 -2.763755e-07
 -1.728593e-07
 -1.106357e-07
 -7.361037e-08
 -4.906039e-08
 -3.049327e-08
 -1.470217e-08
 0.000000e+00
 0.000000e+00
 -4.759755e-07
 -2.627966e-06
 -1.074207e-06
 -6.245371e-07
 -3.258863e-07
 -1.339492e-07
 -4.893600e-08
 -2.919835e-07
 -5.876301e-07
 -5.780158e-07
 -4.896303e-07
 -4.557393e-07
 -4.442826e-07
 -4.370540e-07
 -4.273373e-07
 -4.151951e-07
 -4.038602e-07
 -3.955363e-07
 -3.875812e-07
 -3.747383e-07
 -3.553643e-07
 -3.268664e-07
 -2.783199e-07
 -2.076820e-07
 -1.408891e-07
 -1.087473e-07
 -1.208375e-07
 -1.620552e-07
 -1.957529e-07
 -1.954876e-07
 -1.672391e-07
 -1.311230e-07
 -1.035140e-07
 -9.239481e-08
 -9.452487e-08
 -9.576532e-08
 -7.831446e-08
 -1.888989e-08
 1.572142e-07
 1.233925e-06
 -7.635014e-08
 -9.795627e-07
 -3.321165e-07
 -1.583138e-07
 -9.374773e-08
 -6.221118e-08
 -4.233329e-08
 -2.691298e-08
 -1.318183e-08
 0.000000e+00
 0.000000e+00
 -1.777689e-05
 -6.712504e-07
 -6.611904e-07
 -4.374145e-07
 -2.936243e-07
 -2.249289e-07
 -2.312946e-07
 -3.303063e-07
 -4.464578e-07
 -4.950099e-07
 -5.019926e-07
 -5.074508e-07
 -5.135699e-07
 -5.138693e-07
 -5.072314e-07
 -4.968737e-07
 -4.856648e-07
 -4.696582e-07
 -4.380583e-07
 -3.926874e-07
 -3.608345e-07
 -3.525406e-07
 -3.125189e-07
 -1.937756e-07
 -7.031152e-08
 -2.372209e-08
 -6.569983e-08
 -1.810441e-07
 -2.700906e-07
 -2.610130e-07
 -1.965540e-07
 -1.287207e-07
 -8.393918e-08
 -7.799327e-08
 -1.076969e-07
 -1.420221e-07
 -1.540582e-07
 -1.470629e-07
 -1.435332e-07
 -9.651391e-08
 -1.753989e-05
 -6.814554e-08
 -8.618420e-08
 -6.199004e-08
 -5.022642e-08
 -4.094641e-08
 -3.174985e-08
 -2.187815e-08
 -1.120112e-08
 0.000000e+00
 0.000000e+00
 -1.718932e-07
 7.000665e-07
 -2.390298e-07
 -1.504325e-07
 -1.900303e-07
 -2.505276e-07
 -2.961425e-07
 -3.481762e-07
 -4.017688e-07
 -4.521190e-07
 -5.068286e-07
 -5.582986e-07
 -5.898737e-07
 -5.984001e-07
 -5.908716e-07
 -5.781717e-07
 -5.703531e-07
 -5.614126e-07
 -5.086804e-07
 -3.950507e-07
 -3.273937e-07
 -4.080918e-07
 -4.564881e-07
 -1.832402e-07
 9.519458e-08
 1.462080e-07
 8.629262e-08
 -2.321576e-07
 -4.705715e-07
 -3.785864e-07
 -2.238210e-07
 -1.027088e-07
 -2.253960e-08
 -2.148666e-08
 -1.172165e-07
 -2.172654e-07
 -2.512423e-07
 -2.746759e-07
 -4.042876e-07
 -1.015089e-06
 -8.182088e-08
 1.254160e-06
 1.999696e-07
 4.249597e-08
 -4.992396e-09
 -1.979309e-08
 -2.193259e-08
 -1.771792e-08
 -9.787876e-09
 0.000000e+00
 0.000000e+00
 -3.302819e-07
 -1.471544e-06
 -3.487760e-07
 4.742752e-07
 -1.362619e-07
 -2.891525e-07
 -3.483553e-07
 -3.650474e-07
 -3.643559e-07
 -4.005775e-07
 -5.128345e-07
 -6.325550e-07
 -6.907428e-07
 -6.995533e-07
 -6.797862e-07
 -6.527775e-07
 -6.472474e-07
 -6.977673e-07
 -6.714461e-07
 -3.496243e-07
 -1.171322e-07
 -3.285849e-07
 -1.511321e-06
 -2.608417e-07
 6.596572e-07
 1.729772e-07
 1.077545e-06
 -2.792734e-07
 -1.173188e-06
 -4.740059e-07
 -2.142502e-07
 -4.428189e-08
 1.180194e-07
 1.606650e-07
 -1.277792e-07
 -3.880671e-07
 -3.615811e-07
 -3.173711e-07
 -3.544897e-07
 -3.736510e-07
 -1.054455e-07
 1.936380e-07
 1.734877e-07
 6.671913e-08
 1.401714e-08
 -9.605034e-09
 -1.799701e-08
 -1.719073e-08
 -1.025312e-08
 0.000000e+00
 0.000000e+00
 -2.513985e-07
 -5.596959e-07
 1.671953e-05
 -5.650452e-07
 -3.362354e-07
 -3.946604e-07
 -4.414206e-07
 -4.066911e-07
 -2.913018e-07
 -2.453490e-07
 -5.130178e-07
 -7.890084e-07
 -8.378428e-07
 -8.298494e-07
 -7.773636e-07
 -7.070391e-07
 -6.679844e-07
 -7.427948e-07
 -1.716723e-06
 -3.051489e-07
 6.820889e-07
 5.970480e-08
 -2.292138e-07
 1.707240e-05
 -4.429651e-07
 -4.330141e-07
 -4.138953e-07
 -1.786121e-05
 -3.645817e-07
 -3.047516e-07
 -1.380375e-07
 2.162681e-08
 2.080119e-07
 1.255535e-06
 -8.544170e-08
 -1.018792e-06
 -4.057695e-07
 -2.710877e-07
 -2.387860e-07
 -1.925579e-07
 -7.779485e-08
 3.642602e-08
 6.456141e-08
 3.712032e-08
 6.359341e-09
 -1.340449e-08
 -2.282522e-08
 -2.281046e-08
 -1.415488e-08
 0.000000e+00
 0.000000e+00
 -2.148615e-07
 2.959790e-08
 -2.071401e-06
 -2.128758e-06
 -1.597060e-07
 -5.917125e-07
 -6.148000e-07
 -5.244716e-07
 -3.173450e-07
 7.990249e-07
 -4.222889e-07
 -1.314992e-06
 -9.606710e-07
 -1.028670e-06
 -8.920705e-07
 -7.312900e-07
 -6.040163e-07
 -4.734632e-07
 -3.761009e-07
 1.723502e-05
 -8.000227e-09
 2.339415e-07
 5.642890e-07
 -6.357362e-07
 -1.989667e-06
 -1.039860e-06
 -1.512844e-06
 -5.469909e-07
 8.032495e-07
 -1.810944e-07
 -4.663082e-08
 1.146564e-07
 1.400200e-08
 -4.086766e-08
 -1.752968e-05
 -9.102078e-08
 -1.422751e-07
 -1.439865e-07
 -1.397550e-07
 -1.091497e-07
 -5.394217e-08
 -4.656119e-09
 1.142646e-08
 1.684941e-09
 -1.382424e-08
 -2.724715e-08
 -3.701347e-08
 -3.755975e-08
 -2.402320e-08
 0.000000e+00
 0.000000e+00
 -5.304780e-07
 -7.284205e-07
 -1.048179e-06
 1.613639e-05
 -1.271208e-06
 -1.059147e-06
 -8.721346e-07
 -7.165456e-07
 -6.630475e-07
 -5.924647e-07
 -1.790901e-05
 5.996937e-07
 -7.508695e-07
 -1.631426e-06
 -9.512547e-07
 -7.187837e-07
 -5.415588e-07
 -2.545218e-07
 5.334041e-07
 -1.991584e-07
 -1.244787e-06
 9.928886e-07
 -1.314533e-07
 -1.289362e-06
 -1.008387e-06
 -9.688961e-07
 -9.809372e-07
 -7.336860e-07
 -2.957761e-07
 -1.148256e-06
 -3.793653e-08
 6.350789e-07
 -2.352169e-07
 -9.852020e-07
 -5.664907e-08
 1.250727e-06
 1.542022e-07
 -2.671737e-08
 -7.003563e-08
 -5.690623e-08
 -2.373276e-08
 -4.471351e-09
 -1.391203e-08
 -3.125861e-08
 -3.716561e-08
 -4.346803e-08
 -6.047068e-08
 -6.817517e-08
 -4.565498e-08
 0.000000e+00
 0.000000e+00
 -1.403780e-06
 -1.250912e-06
 -5.118204e-07
 -1.412481e-06
 -2.753510e-06
 -1.613961e-06
 -1.092190e-06
 -7.818149e-07
 -9.407022e-07
 -1.652124e-06
 -8.016608e-07
 5.214233e-07
 -1.800771e-05
 -6.947015e-07
 -7.327459e-07
 -6.703297e-07
 -5.691095e-07
 -3.703678e-07
 -1.332668e-07
 -2.042466e-07
 -4.100184e-07
 -3.299676e-07
 -1.773277e-05
 -3.708371e-07
 -5.434380e-07
 -6.225252e-07
 -7.251355e-07
 -1.647122e-06
 -1.890202e-07
 6.972033e-07
 1.740436e-05
 -4.343744e-07
 -6.320028e-07
 -4.712568e-07
 -7.062571e-09
 2.217098e-07
 1.139298e-07
 -1.865076e-08
 -5.236412e-08
 -2.595473e-08
 2.342809e-08
 3.267196e-08
 -3.182362e-08
 -8.343287e-08
 -5.964859e-08
 -4.151927e-08
 -9.326351e-08
 -1.354067e-07
 -9.283493e-08
 0.000000e+00
 0.000000e+00
 -3.518399e-06
 -1.981349e-06
 -1.419699e-06
 -1.471277e-06
 -1.776323e-06
 -2.713604e-06
 -1.219088e-06
 -2.398507e-07
 -9.248733e-07
 -1.177743e-06
 -1.161938e-06
 -1.556103e-06
 -6.865959e-07
 5.432850e-07
 -5.242587e-07
 -6.524817e-07
 -6.970381e-07
 -6.392245e-07
 -3.176729e-07
 -1.368992e-07
 -3.718375e-07
 -1.087177e-06
 -2.363188e-07
 1.002641e-06
 -1.222190e-07
 -2.839363e-07
 -2.533381e-07
 -1.671685e-07
 1.751432e-05
 6.941994e-07
 -2.816791e-07
 -1.866655e-06
 -1.962450e-06
 -5.100863e-07
 5.332612e-07
 2.838258e-08
 -7.386003e-08
 -1.074019e-07
 -9.310721e-08
 -2.526364e-08
 1.122047e-07
 1.744464e-07
 -6.743868e-08
 -2.467423e-07
 -7.224883e-08
 6.596348e-08
 -1.388336e-07
 -3.146695e-07
 -1.874018e-07
 0.000000e+00
 0.000000e+00
 -3.784998e-06
 -2.103241e-06
 -1.590700e-06
 -1.406766e-06
 -1.341763e-06
 -1.305962e-06
 1.624338e-05
 -1.137608e-06
 -1.087296e-06
 -1.143553e-06
 -1.195239e-06
 -1.208193e-06
 -9.762365e-07
 -6.967224e-07