<VTKFile type="UnstructuredGrid"  version="0.1"   >
<UnstructuredGrid>  
<Piece  NumberOfPoints="     2601"  NumberOfCells="     5000">  
<Points>  
<DataArray  type="Float64"  NumberOfComponents="3"  format="ascii">  
 0.000000 0.000000 0.000000 
 0.020000 0.000000 0.000000 
 0.040000 0.000000 0.000000 
 0.060000 0.000000 0.000000 
 0.080000 0.000000 0.000000 
 0.100000 0.000000 0.000000 
 0.120000 0.000000 0.000000 
 0.140000 0.000000 0.000000 
 0.160000 0.000000 0.000000 
 0.180000 0.000000 0.000000 
 0.200000 0.000000 0.000000 
 0.220000 0.000000 0.000000 
 0.240000 0.000000 0.000000 
 0.260000 0.000000 0.000000 
 0.280000 0.000000 0.000000 
 0.300000 0.000000 0.000000 
 0.320000 0.000000 0.000000 
 0.340000 0.000000 0.000000 
 0.360000 0.000000 0.000000 
 0.380000 0.000000 0.000000 
 0.400000 0.000000 0.000000 
 0.420000 0.000000 0.000000 
 0.440000 0.000000 0.000000 
 0.460000 0.000000 0.000000 
 0.480000 0.000000 0.000000 
 0.500000 0.000000 0.000000 
 0.520000 0.000000 0.000000 
 0.540000 0.000000 0.000000 
 0.560000 0.000000 0.000000 
 0.580000 0.000000 0.000000 
 0.600000 0.000000 0.000000 
 0.620000 0.000000 0.000000 
 0.640000 0.000000 0.000000 
 0.660000 0.000000 0.000000 
 0.680000 0.000000 0.000000 
 0.700000 0.000000 0.000000 
 0.720000 0.000000 0.000000 
 0.740000 0.000000 0.000000 
 0.760000 0.000000 0.000000 
 0.780000 0.000000 0.000000 
 0.800000 0.000000 0.000000 
 0.820000 0.000000 0.000000 
 0.840000 0.000000 0.000000 
 0.860000 0.000000 0.000000 
 0.880000 0.000000 0.000000 
 0.900000 0.000000 0.000000 
 0.920000 0.000000 0.000000 
 0.940000 0.000000 0.000000 
 0.960000 0.000000 0.000000 
 0.980000 0.000000 0.000000 
 1.000000 0.000000 0.000000 
 0.000000 0.020000 0.000000 
 0.020000 0.020000 0.000000 
 0.040000 0.020000 0.000000 
 0.060000 0.020000 0.000000 
 0.080000 0.020000 0.000000 
 0.100000 0.020000 0.000000 
 0.120000 0.020000 0.000000 
 0.140000 0.020000 0.000000 
 0.160000 0.020000 0.000000 
 0.180000 0.020000 0.000000 
 0.200000 0.020000 0.000000 
 0.220000 0.020000 0.000000 
 0.240000 0.020000 0.000000 
 0.260000 0.020000 0.000000 
 0.280000 0.020000 0.000000 
 0.300000 0.020000 0.000000 
 0.320000 0.020000 0.000000 
 0.340000 0.020000 0.000000 
 0.360000 0.020000 0.000000 
 0.380000 0.020000 0.000000 
 0.400000 0.020000 0.000000 
 0.420000 0.020000 0.000000 
 0.440000 0.020000 0.000000 
 0.460000 0.020000 0.000000 
 0.480000 0.020000 0.000000 
 0.500000 0.020000 0.000000 
 0.520000 0.020000 0.000000 
 0.540000 0.020000 0.000000 
 0.560000 0.020000 0.000000 
 0.580000 0.020000 0.000000 
 0.600000 0.020000 0.000000 
 0.620000 0.020000 0.000000 
 0.640000 0.020000 0.000000 
 0.660000 0.020000 0.000000 
 0.680000 0.020000 0.000000 
 0.700000 0.020000 0.000000 
 0.720000 0.020000 0.000000 
 0.740000 0.020000 0.000000 
 0.760000 0.020000 0.000000 
 0.780000 0.020000 0.000000 
 0.800000 0.020000 0.000000 
 0.820000 0.020000 0.000000 
 0.840000 0.020000 0.000000 
 0.860000 0.020000 0.000000 
 0.880000 0.020000 0.000000 
 0.900000 0.020000 0.000000 
 0.920000 0.020000 0.000000 
 0.940000 0.020000 0.000000 
 0.960000 0.020000 0.000000 
 0.980000 0.020000 0.000000 
 1.000000 0.020000 0.000000 
 0.000000 0.040000 0.000000 
 0.020000 0.040000 0.000000 
 0.040000 0.040000 0.000000 
 0.060000 0.040000 0.000000 
 0.080000 0.040000 0.000000 
 0.100000 0.040000 0.000000 
 0.120000 0.040000 0.000000 
 0.140000 0.040000 0.000000 
 0.160000 0.040000 0.000000 
 0.180000 0.040000 0.000000 
 0.200000 0.040000 0.000000 
 0.220000 0.040000 0.000000 
 0.240000 0.040000 0.000000 
 0.260000 0.040000 0.000000 
 0.280000 0.040000 0.000000 
 0.300000 0.040000 0.000000 
 0.320000 0.040000 0.000000 
 0.340000 0.040000 0.000000 
 0.360000 0.040000 0.000000 
 0.380000 0.040000 0.000000 
 0.400000 0.040000 0.000000 
 0.420000 0.040000 0.000000 
 0.440000 0.040000 0.000000 
 0.460000 0.040000 0.000000 
 0.480000 0.040000 0.000000 
 0.500000 0.040000 0.000000 
 0.520000 0.040000 0.000000 
 0.540000 0.040000 0.000000 
 0.560000 0.040000 0.000000 
 0.580000 0.040000 0.000000 
 0.600000 0.040000 0.000000 
 0.620000 0.040000 0.000000 
 0.640000 0.040000 0.000000 
 0.660000 0.040000 0.000000 
 0.680000 0.040000 0.000000 
 0.700000 0.040000 0.000000 
 0.720000 0.040000 0.000000 
 0.740000 0.040000 0.000000 
 0.760000 0.040000 0.000000 
 0.780000 0.040000 0.000000 
 0.800000 0.040000 0.000000 
 0.820000 0.040000 0.000000 
 0.840000 0.040000 0.000000 
 0.860000 0.040000 0.000000 
 0.880000 0.040000 0.000000 
 0.900000 0.040000 0.000000 
 0.920000 0.040000 0.000000 
 0.940000 0.040000 0.000000 
 0.960000 0.040000 0.000000 
 0.980000 0.040000 0.000000 
 1.000000 0.040000 0.000000 
 0.000000 0.060000 0.000000 
 0.020000 0.060000 0.000000 
 0.040000 0.060000 0.000000 
 0.060000 0.060000 0.000000 
 0.080000 0.060000 0.000000 
 0.100000 0.060000 0.000000 
 0.120000 0.060000 0.000000 
 0.140000 0.060000 0.000000 
 0.160000 0.060000 0.000000 
 0.180000 0.060000 0.000000 
 0.200000 0.060000 0.000000 
 0.220000 0.060000 0.000000 
 0.240000 0.060000 0.000000 
 0.260000 0.060000 0.000000 
 0.280000 0.060000 0.000000 
 0.300000 0.060000 0.000000 
 0.320000 0.060000 0.000000 
 0.340000 0.060000 0.000000 
 0.360000 0.060000 0.000000 
 0.380000 0.060000 0.000000 
 0.400000 0.060000 0.000000 
 0.420000 0.060000 0.000000 
 0.440000 0.060000 0.000000 
 0.460000 0.060000 0.000000 
 0.480000 0.060000 0.000000 
 0.500000 0.060000 0.000000 
 0.520000 0.060000 0.000000 
 0.540000 0.060000 0.000000 
 0.560000 0.060000 0.000000 
 0.580000 0.060000 0.000000 
 0.600000 0.060000 0.000000 
 0.620000 0.060000 0.000000 
 0.640000 0.060000 0.000000 
 0.660000 0.060000 0.000000 
 0.680000 0.060000 0.000000 
 0.700000 0.060000 0.000000 
 0.720000 0.060000 0.000000 
 0.740000 0.060000 0.000000 
 0.760000 0.060000 0.000000 
 0.780000 0.060000 0.000000 
 0.800000 0.060000 0.000000 
 0.820000 0.060000 0.000000 
 0.840000 0.060000 0.000000 
 0.860000 0.060000 0.000000 
 0.880000 0.060000 0.000000 
 0.900000 0.060000 0.000000 
 0.920000 0.060000 0.000000 
 0.940000 0.060000 0.000000 
 0.960000 0.060000 0.000000 
 0.980000 0.060000 0.000000 
 1.000000 0.060000 0.000000 
 0.000000 0.080000 0.000000 
 0.020000 0.080000 0.000000 
 0.040000 0.080000 0.000000 
 0.060000 0.080000 0.000000 
 0.080000 0.080000 0.000000 
 0.100000 0.080000 0.000000 
 0.120000 0.080000 0.000000 
 0.140000 0.080000 0.000000 
 0.160000 0.080000 0.000000 
 0.180000 0.080000 0.000000 
 0.200000 0.080000 0.000000 
 0.220000 0.080000 0.000000 
 0.240000 0.080000 0.000000 
 0.260000 0.080000 0.000000 
 0.280000 0.080000 0.000000 
 0.300000 0.080000 0.000000 
 0.320000 0.080000 0.000000 
 0.340000 0.080000 0.000000 
 0.360000 0.080000 0.000000 
 0.380000 0.080000 0.000000 
 0.400000 0.080000 0.000000 
 0.420000 0.080000 0.000000 
 0.440000 0.080000 0.000000 
 0.460000 0.080000 0.000000 
 0.480000 0.080000 0.000000 
 0.500000 0.080000 0.000000 
 0.520000 0.080000 0.000000 
 0.540000 0.080000 0.000000 
 0.560000 0.080000 0.000000 
 0.580000 0.080000 0.000000 
 0.600000 0.080000 0.000000 
 0.620000 0.080000 0.000000 
 0.640000 0.080000 0.000000 
 0.660000 0.080000 0.000000 
 0.680000 0.080000 0.000000 
 0.700000 0.080000 0.000000 
 0.720000 0.080000 0.000000 
 0.740000 0.080000 0.000000 
 0.760000 0.080000 0.000000 
 0.780000 0.080000 0.000000 
 0.800000 0.080000 0.000000 
 0.820000 0.080000 0.000000 
 0.840000 0.080000 0.000000 
 0.860000 0.080000 0.000000 
 0.880000 0.080000 0.000000 
 0.900000 0.080000 0.000000 
 0.920000 0.080000 0.000000 
 0.940000 0.080000 0.000000 
 0.960000 0.080000 0.000000 
 0.980000 0.080000 0.000000 
 1.000000 0.080000 0.000000 
 0.000000 0.100000 0.000000 
 0.020000 0.100000 0.000000 
 0.040000 0.100000 0.000000 
 0.060000 0.100000 0.000000 
 0.080000 0.100000 0.000000 
 0.100000 0.100000 0.000000 
 0.120000 0.100000 0.000000 
 0.140000 0.100000 0.000000 
 0.160000 0.100000 0.000000 
 0.180000 0.100000 0.000000 
 0.200000 0.100000 0.000000 
 0.220000 0.100000 0.000000 
 0.240000 0.100000 0.000000 
 0.260000 0.100000 0.000000 
 0.280000 0.100000 0.000000 
 0.300000 0.100000 0.000000 
 0.320000 0.100000 0.000000 
 0.340000 0.100000 0.000000 
 0.360000 0.100000 0.000000 
 0.380000 0.100000 0.000000 
 0.400000 0.100000 0.000000 
 0.420000 0.100000 0.000000 
 0.440000 0.100000 0.000000 
 0.460000 0.100000 0.000000 
 0.480000 0.100000 0.000000 
 0.500000 0.100000 0.000000 
 0.520000 0.100000 0.000000 
 0.540000 0.100000 0.000000 
 0.560000 0.100000 0.000000 
 0.580000 0.100000 0.000000 
 0.600000 0.100000 0.000000 
 0.620000 0.100000 0.000000 
 0.640000 0.100000 0.000000 
 0.660000 0.100000 0.000000 
 0.680000 0.100000 0.000000 
 0.700000 0.100000 0.000000 
 0.720000 0.100000 0.000000 
 0.740000 0.100000 0.000000 
 0.760000 0.100000 0.000000 
 0.780000 0.100000 0.000000 
 0.800000 0.100000 0.000000 
 0.820000 0.100000 0.000000 
 0.840000 0.100000 0.000000 
 0.860000 0.100000 0.000000 
 0.880000 0.100000 0.000000 
 0.900000 0.100000 0.000000 
 0.920000 0.100000 0.000000 
 0.940000 0.100000 0.000000 
 0.960000 0.100000 0.000000 
 0.980000 0.100000 0.000000 
 1.000000 0.100000 0.000000 
 0.000000 0.120000 0.000000 
 0.020000 0.120000 0.000000 
 0.040000 0.120000 0.000000 
 0.060000 0.120000 0.000000 
 0.080000 0.120000 0.000000 
 0.100000 0.120000 0.000000 
 0.120000 0.120000 0.000000 
 0.140000 0.120000 0.000000 
 0.160000 0.120000 0.000000 
 0.180000 0.120000 0.000000 
 0.200000 0.120000 0.000000 
 0.220000 0.120000 0.000000 
 0.240000 0.120000 0.000000 
 0.260000 0.120000 0.000000 
 0.280000 0.120000 0.000000 
 0.300000 0.120000 0.000000 
 0.320000 0.120000 0.000000 
 0.340000 0.120000 0.000000 
 0.360000 0.120000 0.000000 
 0.380000 0.120000 0.000000 
 0.400000 0.120000 0.000000 
 0.420000 0.120000 0.000000 
 0.440000 0.120000 0.000000 
 0.460000 0.120000 0.000000 
 0.480000 0.120000 0.000000 
 0.500000 0.120000 0.000000 
 0.520000 0.120000 0.000000 
 0.540000 0.120000 0.000000 
 0.560000 0.120000 0.000000 
 0.580000 0.120000 0.000000 
 0.600000 0.120000 0.000000 
[...]
<PointData  Scalars="U"> 
<DataArray  type="Float64"  Name="U"  format="ascii"> 
 0.000000e+00
 0.000000e+00
 0.000000e+00
 0.000000e+00
 0.000000e+00
 0.000000e+00
 0.000000e+00
 0.000000e+00
 0.000000e+00
 0.000000e+00
 0.000000e+00
 0.000000e+00
 0.000000e+00
 0.000000e+00
 0.000000e+00
 0.000000e+00
 0.000000e+00
 0.000000e+00
 0.000000e+00
 0.000000e+00
 0.000000e+00
 0.000000e+00
 0.000000e+00
 0.000000e+00
 0.000000e+00
 0.000000e+00
 0.000000e+00
 0.000000e+00
 0.000000e+00
 0.000000e+00
 0.000000e+00
 0.000000e+00
 0.000000e+00
 0.000000e+00
 0.000000e+00
 0.000000e+00
 0.000000e+00
 0.000000e+00
 0.000000e+00
 0.000000e+00
 0.000000e+00
 0.000000e+00
 0.000000e+00
 0.000000e+00
 0.000000e+00
 0.000000e+00
 0.000000e+00
 0.000000e+00
 0.000000e+00
 0.000000e+00
 0.000000e+00
 0.000000e+00
 1.829966e-11
 3.661450e-11
 5.495341e-11
 7.331312e-11
 9.167322e-11
 1.099924e-10
 1.282064e-10
 1.462270e-10
 1.639436e-10
 1.812258e-10
 1.979274e-10
 2.138918e-10
 2.289580e-10
 2.429669e-10
 2.557674e-10
 2.672223e-10
 2.772134e-10
 2.856450e-10
 2.924469e-10
 2.975759e-10
 3.010157e-10
 3.027762e-10
 3.028914e-10
 3.014171e-10
 2.984274e-10
 2.940112e-10
 2.882688e-10
 2.813080e-10
 2.732413e-10
 2.641823e-10
 2.542435e-10
 2.435337e-10
 2.321565e-10
 2.202089e-10
 2.077803e-10
 1.949515e-10
 1.817952e-10
 1.683752e-10
 1.547469e-10
 1.409575e-10
 1.270465e-10
 1.130460e-10
 9.898163e-11
 8.487210e-11
 7.072915e-11
 5.655421e-11
 4.232496e-11
 2.793329e-11
 1.284550e-11
 0.000000e+00
 0.000000e+00
 3.658306e-11
 7.320288e-11
 1.098831e-10
 1.466223e-10
 1.833834e-10
 2.200861e-10
 2.566023e-10
 2.927546e-10
 3.283190e-10
 3.630304e-10
 3.965912e-10
 4.286821e-10
 4.589748e-10
 4.871445e-10
 5.128835e-10
 5.359124e-10
 5.559906e-10
 5.729242e-10
 5.865714e-10
 5.968454e-10
 6.037148e-10
 6.072011e-10
 6.073754e-10
 6.043522e-10
 5.982832e-10
 5.893500e-10
 5.777565e-10
 5.637222e-10
 5.474746e-10
 5.292439e-10
 5.092570e-10
 4.877336e-10
 4.648822e-10
 4.408976e-10
 4.159591e-10
 3.902292e-10
 3.638528e-10
 3.369575e-10
 3.096537e-10
 2.820354e-10
 2.541812e-10
 2.261549e-10
 1.980073e-10
 1.697761e-10
 1.414872e-10
 1.131529e-10
 8.476901e-11
 5.632032e-11
 2.793364e-11
 0.000000e+00
 0.000000e+00
 5.482751e-11
 1.097266e-10
 1.647479e-10
 2.199023e-10
 2.751439e-10
 3.303581e-10
 3.853541e-10
 4.398631e-10
 4.935419e-10
 5.459820e-10
 5.967233e-10
 6.452714e-10
 6.911172e-10
 7.337577e-10
 7.727162e-10
 8.075610e-10
 8.379211e-10
 8.634989e-10
 8.840782e-10
 8.995285e-10
 9.098051e-10
 9.149455e-10
 9.150631e-10
 9.103381e-10
 9.010069e-10
 8.873514e-10
 8.696866e-10
 8.483500e-10
 8.236906e-10
 7.960604e-10
 7.658053e-10
 7.332592e-10
 6.987383e-10
 6.625373e-10
 6.249266e-10
 5.861504e-10
 5.464264e-10
 5.059454e-10
 4.648723e-10
 4.233469e-10
 3.814857e-10
 3.393832e-10
 2.971144e-10
 2.547358e-10
 2.122880e-10
 1.697976e-10
 1.272829e-10
 8.477075e-11
 4.232635e-11
 0.000000e+00
 0.000000e+00
 7.299689e-11
 1.461212e-10
 2.194702e-10
 2.930835e-10
 3.669190e-10
 4.408351e-10
 5.145805e-10
 5.877908e-10
 6.599948e-10
 7.306265e-10
 7.990461e-10
 8.645639e-10
 9.264694e-10
 9.840605e-10
 1.036673e-09
 1.083707e-09
 1.124648e-09
 1.159087e-09
 1.186729e-09
 1.207399e-09
 1.221044e-09
 1.227724e-09
 1.227603e-09
 1.220937e-09
 1.208061e-09
 1.189366e-09
 1.165291e-09
 1.136301e-09
 1.102877e-09
 1.065500e-09
 1.024642e-09
 9.807560e-10
 9.342705e-10
 8.855825e-10
 8.350549e-10
 7.830149e-10
 7.297525e-10
 6.755213e-10
 6.205393e-10
 5.649906e-10
 5.090280e-10
 4.527749e-10
 3.963285e-10
 3.397622e-10
 2.831295e-10
 2.264674e-10
 1.698025e-10
 1.131584e-10
 5.655770e-11
 0.000000e+00
 0.000000e+00
 9.103381e-11
 1.822812e-10
 2.739145e-10
 3.660258e-10
 4.585948e-10
 5.514639e-10
 6.443237e-10
 7.367092e-10
 8.280072e-10
 9.174750e-10
 1.004267e-09
 1.087470e-09
 1.166142e-09
 1.239353e-09
 1.306223e-09
 1.365962e-09
 1.417896e-09
 1.461491e-09
 1.496370e-09
 1.522315e-09
 1.539266e-09
 1.547318e-09
 1.546700e-09
 1.537758e-09
 1.520940e-09
 1.496765e-09
 1.465811e-09
 1.428686e-09
 1.386014e-09
 1.338417e-09
 1.286501e-09
 1.230847e-09
 1.172000e-09
 1.110461e-09
 1.046690e-09
 9.810957e-10
 9.140416e-10
 8.458424e-10
 7.767676e-10
 7.070435e-10
 6.368565e-10
 5.663561e-10
 4.956589e-10
 4.248523e-10
 3.539986e-10
 2.831397e-10
 2.123017e-10
 1.414994e-10
 7.073617e-11
 0.000000e+00
 0.000000e+00
 1.088501e-10
 2.180420e-10
 3.278617e-10
 4.384872e-10
 5.499449e-10
 6.620758e-10
 7.745163e-10
 8.866930e-10
 9.978327e-10
 1.106988e-09
 1.213072e-09
 1.314910e-09
 1.411285e-09
 1.501000e-09
 1.582924e-09
 1.656046e-09
 1.719508e-09
 1.772640e-09
 1.814973e-09
 1.846248e-09
 1.866411e-09
 1.875603e-09
 1.874136e-09
 1.862469e-09
 1.841184e-09
 1.810951e-09
 1.772505e-09
 1.726618e-09
 1.674073e-09
 1.615648e-09
 1.552093e-09
 1.484126e-09
 1.412412e-09
 1.337565e-09
 1.260139e-09
 1.180629e-09
 1.099468e-09
 1.017032e-09
 9.336384e-10
 8.495532e-10
 7.649928e-10
 6.801292e-10
 5.950947e-10
 5.099861e-10
 4.248704e-10
 3.397892e-10
 2.547637e-10
 1.697986e-10
 8.488450e-11
 0.000000e+00
 0.000000e+00
 1.263152e-10
 2.531569e-10
 3.809774e-10
 5.100853e-10
 6.405871e-10
 7.723427e-10
 9.049392e-10
 1.037684e-09
 1.169620e-09
 1.299555e-09
 1.426118e-09
 1.547814e-09
 1.663101e-09
 1.770457e-09
 1.868455e-09
 1.955820e-09
 2.031486e-09
 2.094623e-09
 2.144668e-09
 2.181325e-09
 2.204557e-09
 2.214572e-09
 2.211791e-09
 2.196814e-09
 2.170385e-09
 2.133355e-09
 2.086643e-09
 2.031206e-09
 1.968009e-09
 1.898001e-09
 1.822091e-09
 1.741141e-09
 1.655947e-09
 1.567237e-09
 1.475662e-09
 1.381802e-09
 1.286161e-09
 1.189170e-09
 1.091193e-09
 9.925305e-10
 8.934256e-10
 7.940675e-10
 6.945994e-10
 5.951229e-10
 4.957043e-10
 3.963803e-10
 2.971630e-10
 1.980445e-10
 9.900178e-11
 0.000000e+00
 0.000000e+00
 1.432411e-10
 2.872688e-10
 4.327715e-10
 5.802479e-10
 7.299295e-10
 8.817216e-10
 1.035169e-09
 1.189446e-09
 1.343376e-09
 1.495476e-09
 1.644022e-09
 1.787132e-09
 1.922862e-09
 2.049299e-09
 2.164652e-09
 2.267336e-09
 2.356035e-09
 2.429744e-09
 2.487796e-09
 2.529866e-09
 2.555956e-09
 2.566368e-09
 2.561666e-09
 2.542628e-09
 2.510200e-09
 2.465446e-09
 2.409506e-09
 2.343551e-09
 2.268751e-09
 2.186246e-09
 2.097119e-09
 2.002389e-09
 1.902987e-09
 1.799759e-09
 1.693459e-09
 1.584746e-09
 1.474192e-09
 1.362283e-09
 1.249423e-09
 1.135942e-09
 1.022104e-09
 9.081091e-10
 7.941066e-10
 6.801966e-10
 5.664395e-10
 4.528615e-10
 3.394607e-10
 2.262129e-10
 1.130770e-10
 0.000000e+00
 0.000000e+00
 1.593638e-10
 3.198738e-10
 4.825468e-10
 6.481504e-10
 8.171004e-10
 9.893832e-10
 1.164509e-09
 1.341502e-09
 1.518921e-09
 1.694924e-09
 1.867350e-09
 2.033837e-09
 2.191939e-09
 2.339258e-09
 2.473562e-09
 2.592890e-09
 2.695631e-09
 2.780578e-09
 2.846961e-09
 2.894437e-09
 2.923076e-09
 2.933314e-09
 2.925905e-09
 2.901852e-09
 2.862352e-09
 2.808730e-09
 2.742384e-09
 2.664736e-09
 2.577190e-09
 2.481099e-09
 2.377739e-09
 2.268292e-09
 2.153838e-09
 2.035340e-09
 1.913652e-09
 1.789516e-09
 1.663566e-09
 1.536334e-09
 1.408262e-09
 1.279701e-09
 1.150928e-09
 1.022151e-09
 8.935145e-10
 7.651119e-10
 6.369911e-10
 5.091617e-10
 3.816026e-10
 2.542675e-10
 1.270923e-10
 0.000000e+00
 0.000000e+00
 1.743187e-10
 3.502737e-10
 5.293321e-10
 7.126341e-10
 9.008584e-10
 1.094119e-09
 1.291905e-09
 1.493063e-09
 1.695830e-09
 1.897913e-09
 2.096605e-09
 2.288933e-09
 2.471826e-09
 2.642277e-09
 2.797509e-09
 2.935100e-09
 3.053092e-09
 3.150051e-09
 3.225101e-09
 3.277907e-09
 3.308649e-09
 3.317952e-09
 3.306818e-09
 3.276544e-09
 3.228638e-09
 3.164741e-09
 3.086561e-09
 2.995811e-09
 2.894161e-09
 2.783205e-09
 2.664426e-09
 2.539186e-09
 2.408712e-09
 2.274092e-09
 2.136276e-09
 1.996083e-09
 1.854204e-09
 1.711213e-09
 1.567576e-09
 1.423660e-09
 1.279748e-09
 1.136043e-09
 9.926809e-10
 8.497391e-10
 7.072459e-10
 5.651877e-10
 4.235172e-10
 2.821603e-10
 1.410235e-10
 0.000000e+00
 0.000000e+00
 1.876087e-10
 3.775151e-10
 5.717958e-10
 7.721004e-10
 9.794741e-10
 1.194222e-09
 1.415826e-09
 1.642925e-09
 1.873354e-09
 2.104250e-09
 2.332207e-09
 2.553478e-09
 2.764191e-09
 2.960578e-09
 3.139174e-09
 3.296999e-09
 3.431679e-09
 3.541527e-09
 3.625568e-09
 3.683518e-09
 3.715722e-09
 3.723074e-09
 3.706907e-09
 3.668892e-09
 3.610925e-09
 3.535036e-09
 3.443300e-09
 3.337770e-09
 3.220422e-09
 3.093112e-09
 2.957552e-09
 2.815291e-09
 2.667709e-09
 2.516016e-09
 2.361257e-09
 2.204317e-09
 2.045937e-09
 1.886722e-09
 1.727153e-09
 1.567604e-09
 1.408350e-09
 1.249583e-09
 1.091418e-09
 9.339109e-10
 7.770602e-10
 6.208216e-10
 4.651148e-10
 3.098309e-10
 1.548404e-10
 0.000000e+00
 0.000000e+00
 1.985639e-10
 4.003101e-10
 6.081336e-10
 8.243729e-10
 1.050577e-09
 1.287325e-09
 1.534117e-09
 1.789340e-09
 2.050320e-09
 2.313466e-09
 2.574474e-09
 2.828596e-09
 3.070936e-09
 3.296750e-09
 3.501714e-09
 3.682158e-09
 3.835217e-09
 3.958925e-09
 4.052234e-09
 4.114965e-09
 4.147723e-09
 4.151770e-09
 4.128883e-09
 4.081212e-09
 4.011141e-09
 3.921173e-09
 3.813820e-09
 3.691529e-09
 3.556620e-09
 3.411243e-09
 3.257350e-09
 3.096688e-09
 2.930790e-09
 2.760982e-09
 2.588393e-09
 2.413969e-09
 2.238486e-09
 2.062565e-09
 1.886694e-09
 1.711237e-09
 1.536453e-09
 1.362508e-09
 1.189490e-09
 1.017419e-09
 8.462562e-10
 6.759191e-10
 5.062860e-10
 3.372058e-10
 1.685061e-10
 0.000000e+00
 0.000000e+00
 2.062884e-10
 4.169342e-10
 6.359227e-10
 8.665171e-10
 1.110953e-09
 1.370197e-09
 1.643799e-09
 1.929840e-09
 2.225001e-09
 2.524746e-09
 2.823603e-09
 3.115522e-09
 3.394280e-09
 3.653880e-09
 3.888913e-09
 4.094854e-09
 4.268260e-09
 4.406871e-09
 4.509607e-09
 4.576494e-09
 4.608522e-09
 4.607463e-09
 4.575683e-09
 4.515950e-09
 4.431258e-09
 4.324682e-09
 4.199255e-09
 4.057877e-09
 3.903254e-09
 3.737853e-09
 3.563883e-09
 3.383286e-09
 3.197747e-09
 3.008697e-09
 2.817337e-09
 2.624655e-09
 2.431448e-09
 2.238339e-09
 2.045803e-09
 1.854182e-09
 1.663704e-09
 1.474496e-09
 1.286607e-09
 1.100009e-09
 9.146205e-10
 7.303079e-10
 5.469007e-10
 3.641980e-10
 1.819768e-10
 0.000000e+00
 0.000000e+00
 2.095929e-10
 4.250939e-10
 6.519325e-10
 8.946065e-10
 1.156280e-09
 1.438465e-09
 1.740806e-09
 2.061014e-09
 2.394940e-09
 2.736817e-09
 3.079639e-09
 3.415648e-09
 3.736884e-09
 4.035726e-09
 4.305386e-09
 4.540283e-09
 4.736299e-09
 4.890876e-09
 5.002991e-09
 5.073016e-09
 5.102505e-09
 5.093942e-09
 5.050473e-09
 4.975658e-09
 4.873251e-09
 4.747020e-09
 4.600607e-09
 4.437431e-09
 4.260623e-09
 4.072988e-09
 3.876997e-09
 3.674786e-09
 3.468175e-09
 3.258686e-09
 3.047570e-09
 2.835839e-09
 2.624286e-09
 2.413519e-09
 2.203979e-09
 1.995969e-09
 1.789668e-09
 1.585155e-09
 1.382421e-09
 1.181383e-09
 9.819020e-10
 7.837863e-10
 5.868073e-10
 3.907062e-10
 1.952021e-10
 0.000000e+00
 0.000000e+00
 2.069088e-10
 4.217592e-10
 6.518826e-10
 9.034175e-10
 1.180783e-09
 1.486247e-09
 1.819632e-09
 2.178195e-09
 2.556718e-09
 2.947817e-09
 3.342453e-09
 3.730606e-09
 4.102021e-09
 4.446962e-09
 4.756868e-09
 5.024859e-09
 5.246035e-09
 5.417578e-09
 5.538662e-09
 5.610227e-09
 5.634652e-09
 5.615396e-09
 5.556641e-09
 5.462960e-09
 5.339047e-09
 5.189501e-09
 5.018674e-09
 4.830564e-09
 4.628761e-09
 4.416424e-09
 4.196278e-09
 3.970638e-09
 3.741437e-09
 3.510260e-09
 3.278384e-09
 3.046812e-09
 2.816312e-09
 2.587447e-09
 2.360605e-09
 2.136029e-09
 1.913831e-09
 1.694024e-09
 1.476528e-09
 1.261194e-09
 1.047811e-09
 8.361229e-10
 6.258324e-10
 4.166149e-10
 2.081241e-10
 0.000000e+00
 0.000000e+00
 1.961809e-10
 4.029509e-10
 6.301321e-10
 8.860356e-10
 1.176774e-09
 1.505676e-09
 1.872862e-09
 2.275051e-09
 2.705641e-09
 3.155112e-09
 3.611713e-09
 4.062391e-09
 4.493834e-09
 4.893518e-09
 5.250603e-09
 5.556601e-09
 5.805740e-09
 5.995034e-09
 6.124095e-09
 6.194758e-09
 6.210597e-09
 6.176414e-09
 6.097753e-09
 5.980476e-09
 5.830431e-09
 5.653204e-09
 5.453953e-09
 5.237316e-09
 5.007362e-09
 4.767598e-09
 4.520988e-09
 4.269993e-09
 4.016623e-09
 3.762489e-09
 3.508854e-09
 3.256680e-09
 3.006674e-09
 2.759326e-09
 2.514947e-09
 2.273691e-09
 2.035590e-09
 1.800568e-09
 1.568463e-09
 1.339044e-09
 1.112020e-09
 8.870567e-10
 6.637812e-10
 4.417947e-10
 2.206783e-10
 0.000000e+00
 0.000000e+00
 1.747352e-10
 3.634782e-10
 5.792901e-10
 8.333504e-10
 1.134061e-09
 1.486244e-09
 1.890528e-09
 2.343008e-09
 2.835305e-09
 3.355055e-09
 3.886854e-09
 4.413544e-09
 4.917694e-09
 5.383072e-09
 5.795886e-09
 6.145674e-09
 6.425729e-09
 6.633097e-09
 6.768218e-09
 6.834316e-09
 6.836685e-09
 6.781962e-09
 6.677475e-09
 6.530714e-09
 6.348925e-09
 6.138842e-09
 5.906526e-09
 5.657288e-09
 5.395682e-09
 5.125536e-09
 4.850008e-09
 4.571656e-09
 4.292515e-09
 4.014170e-09
 3.737820e-09
 3.464343e-09
 3.194346e-09
 2.928213e-09
 2.666143e-09
 2.408183e-09
 2.154256e-09
 1.904183e-09
 1.657704e-09
 1.414491e-09
 1.174164e-09
 9.362977e-10
 7.004376e-10
 4.661024e-10
 2.327933e-10
 0.000000e+00
 0.000000e+00
 1.391238e-10
 2.966219e-10
 4.897344e-10
 7.334140e-10
 1.039166e-09
 1.413947e-09
 1.859238e-09
 2.370474e-09
 2.936998e-09
 3.542652e-09
 4.167060e-09
 4.787442e-09
 5.380747e-09
 5.925755e-09
 6.404835e-09
 6.805116e-09
 7.118975e-09
 7.343876e-09
 7.481708e-09
 7.537826e-09
 7.519977e-09
 7.437294e-09
 7.299428e-09
 7.115892e-09
 6.895598e-09
 6.646587e-09
 6.375892e-09
 6.089506e-09
 5.792431e-09
 5.488757e-09
 5.181764e-09
 4.874032e-09
 4.567548e-09
 4.263802e-09
 3.963870e-09
 3.668490e-09
 3.378124e-09
 3.093011e-09
 2.813208e-09
 2.538624e-09
 2.269053e-09
 2.004194e-09
 1.743670e-09
 1.487046e-09
 1.233839e-09
 9.835288e-10
 7.355662e-10
 4.893820e-10
 2.443914e-10
 0.000000e+00
 0.000000e+00
 8.494968e-11
 1.937706e-10
 3.490357e-10
 5.706417e-10
 8.743223e-10
 1.270117e-09
 1.760967e-09
 2.341719e-09
 2.998839e-09
 3.711088e-09
 4.451247e-09
 5.188732e-09
 5.892711e-09
 6.535180e-09
 7.093476e-09
 7.551842e-09
 7.901925e-09
 8.142303e-09
 8.277311e-09
 8.315527e-09
 8.268186e-09
 8.147781e-09
 7.966948e-09
 7.737676e-09
 7.470817e-09
 7.175843e-09
 6.860780e-09
 6.532260e-09
 6.195645e-09
 5.855181e-09
 5.514159e-09
 5.175077e-09
 4.839776e-09
 4.509563e-09
 4.185321e-09
 3.867584e-09
 3.556620e-09
 3.252476e-09
 2.955034e-09
 2.664037e-09
 2.379126e-09
 2.099859e-09
 1.825729e-09
 1.556179e-09
 1.290614e-09
 1.028408e-09
 7.689140e-10
 5.114665e-10
 2.553897e-10
 0.000000e+00
 0.000000e+00
 6.690425e-12
 4.403247e-11
 1.413040e-10
 3.248424e-10
 6.161710e-10
 1.029861e-09
 1.571368e-09
 2.235282e-09
 3.004530e-09
 3.851039e-09
 4.738066e-09
 5.624015e-09
 6.467102e-09
 7.229962e-09
 7.883307e-09
 8.408024e-09
 8.795552e-09
 9.046805e-09
 9.170146e-09
 9.178986e-09
 9.089472e-09
 8.918579e-09
 8.682711e-09
 8.396812e-09
 8.073907e-09
 7.724954e-09
 7.358913e-09
 6.982924e-09
 6.602550e-09
 6.222029e-09
 5.844506e-09
 5.472254e-09
 5.106843e-09
 4.749299e-09
 4.400220e-09
 4.059872e-09
 3.728266e-09
 3.405219e-09
 3.090396e-09
 2.783350e-09
 2.483544e-09
 2.190378e-09
 1.903200e-09
 1.621322e-09
 1.344026e-09
 1.070574e-09
 8.002130e-10
 5.321790e-10
 2.657002e-10
 0.000000e+00
 0.000000e+00
 -1.024437e-10
 -1.661161e-10
 -1.534883e-10
 -2.990426e-11
 2.341281e-10
 6.599506e-10
 1.257380e-09
 2.021627e-09
 2.931470e-09
 3.949637e-09
 5.025934e-09
 6.102926e-09
 7.123110e-09
 8.036003e-09
 8.803569e-09
 9.403001e-09
 9.826704e-09
 1.008006e-08
 1.017793e-08
 1.014092e-08
 9.992027e-09
 9.754097e-09
 9.448176e-09
 9.092605e-09
 8.702707e-09
 8.290850e-09
 7.866730e-09
 7.437751e-09
 7.009423e-09
 6.585732e-09
 6.169469e-09
 5.762497e-09
 5.365973e-09
 4.980516e-09
 4.606346e-09
 4.243384e-09
 3.891329e-09
 3.549718e-09
 3.217968e-09
 2.895411e-09
 2.581315e-09
 2.274903e-09
 1.975368e-09
 1.681879e-09
 1.393590e-09
 1.109646e-09
 8.291839e-10
 5.513358e-10
 2.752317e-10
 0.000000e+00
 0.000000e+00
 -2.505447e-10
 -4.530242e-10
 -5.600766e-10
 -5.264450e-10
 -3.116327e-10
 1.159644e-10
 7.737717e-10
 1.659620e-09
 2.747860e-09
 3.988854e-09
 5.313099e-09
 6.639863e-09
 7.888563e-09
 8.989991e-09
 9.894562e-09
 1.057590e-08
 1.102980e-08
 1.126973e-08
 1.132097e-08
 1.121469e-08
 1.098329e-08
 1.065714e-08
 1.026278e-08
 9.822227e-09
 9.353019e-09
 8.868626e-09
 8.379091e-09
 7.891676e-09
 7.411459e-09
 6.941854e-09
 6.485023e-09
 6.042206e-09
 5.613969e-09
 5.200396e-09
 4.801228e-09
 4.415963e-09
 4.043929e-09
 3.684342e-09
 3.336338e-09
 2.999004e-09
 2.671396e-09
 2.352548e-09
 2.041487e-09
 1.737234e-09
 1.438809e-09
 1.145237e-09
 8.555402e-10
 5.687482e-10
 2.838907e-10
 0.000000e+00
 0.000000e+00
 -4.468080e-10
 -8.356741e-10
 -1.108099e-09
 -1.205613e-09
 -1.072535e-09
 -6.615390e-10
 5.811266e-11
 1.091088e-09
 2.408051e-09
 3.942867e-09
 5.597773e-09
 7.256850e-09
 8.804695e-09
 1.014484e-08
 1.121257e-08
 1.197925e-08
 1.244880e-08
 1.264905e-08
 1.262167e-08
 1.241321e-08
 1.206865e-08
 1.162762e-08
 1.112280e-08
 1.057983e-08
 1.001794e-08
 9.451082e-09
 8.888973e-09
 8.338126e-09
 7.802678e-09
 7.285051e-09
 6.786454e-09
 6.307254e-09
 5.847244e-09
 5.405833e-09
 4.982181e-09
 4.575291e-09
 4.184070e-09
 3.807374e-09
 3.444032e-09
 3.092870e-09
 2.752714e-09
 2.422406e-09
 2.100797e-09
 1.786760e-09
 1.479177e-09
 1.176951e-09
 8.789927e-10
 5.842263e-10
 2.915830e-10
 0.000000e+00
 0.000000e+00
 -7.008879e-10
 -1.334709e-09
 -1.831414e-09
 -2.116686e-09
 -2.114077e-09
 -1.752082e-09
 -9.766823e-10
 2.321990e-10
 1.844871e-09
 3.773605e-09
 5.878372e-09
 7.988395e-09
 9.934066e-09
 1.157836e-08
 1.283718e-08
 1.368377e-08
 1.413937e-08
 1.425674e-08
 1.410312e-08
 1.374688e-08
 1.324928e-08
 1.266068e-08
 1.201992e-08
 1.135545e-08
 1.068714e-08
 1.002826e-08
 9.387202e-09
 8.768895e-09
 8.175877e-09
 7.609081e-09
 7.068395e-09
 6.553051e-09
 6.061879e-09
 5.593484e-09
 5.146356e-09
 4.718941e-09
 4.309682e-09
 3.917049e-09
 3.539549e-09
 3.175730e-09
 2.824189e-09
 2.483565e-09
 2.152541e-09
 1.829832e-09
 1.514192e-09
 1.204399e-09
 8.992548e-10
 5.975821e-10
 2.982156e-10
 0.000000e+00
 0.000000e+00
 -1.021491e-09
 -1.970052e-09
 -2.765666e-09
 -3.316301e-09
 -3.517797e-09
 -3.261691e-09
 -2.453464e-09
 -1.040566e-09
 9.564372e-10
 3.422869e-09
 6.153923e-09
 8.890061e-09
 1.137411e-08
 1.340731e-08
 1.488224e-08
 1.578452e-08
 1.617045e-08
 1.613545e-08
 1.578587e-08
 1.522002e-08
 1.451894e-08
 1.374414e-08
 1.293933e-08
 1.213382e-08
 1.134610e-08
 1.058704e-08
 9.862289e-09
 9.174116e-09
 8.522685e-09
 7.906892e-09
 7.324931e-09
 6.774640e-09
 6.253720e-09
 5.759863e-09
 5.290820e-09
 4.844438e-09
 4.418676e-09
 4.011601e-09
 3.621390e-09
 3.246319e-09
 2.884753e-09
 2.535133e-09
 2.195972e-09
 1.865842e-09
 1.543363e-09
 1.227200e-09
 9.160483e-10
 6.086332e-10
 3.036982e-10
 0.000000e+00
 0.000000e+00
 -1.413787e-09
 -2.756210e-09
 -3.942652e-09
 -4.864034e-09
 -5.381142e-09
 -5.330296e-09
 -4.547370e-09
 -2.913856e-09
 -4.174049e-10
 2.797718e-09
 6.424816e-09
 1.005426e-08
 1.328120e-08
 1.581072e-08
 1.751198e-08
 1.840803e-08
 1.862399e-08
 1.832715e-08
 1.768180e-08
 1.682502e-08
 1.585932e-08
 1.485521e-08
 1.385766e-08
 1.289312e-08
 1.197557e-08
 1.111097e-08
 1.030045e-08
 9.542393e-09
 8.833742e-09
 8.170818e-09
 7.549776e-09
 6.966856e-09
 6.418508e-09
 5.901443e-09
 5.412640e-09
 4.949336e-09
 4.508999e-09
 4.089304e-09
 3.688107e-09
 3.303418e-09
 2.933381e-09
 2.576251e-09
 2.230382e-09
 1.894207e-09
 1.566226e-09
 1.244993e-09
 9.291087e-10
 6.172064e-10
 3.079450e-10
 0.000000e+00
 0.000000e+00
 -1.875188e-09
 -3.694128e-09
 -5.379371e-09
 -6.811442e-09
 -7.811701e-09
 -8.138092e-09
 -7.509775e-09
 -5.677488e-09
 -2.539005e-09
 1.741912e-09
 6.694235e-09
 1.164092e-08
 1.591502e-08
 1.906924e-08
 2.096408e-08
 2.171817e-08
 2.158918e-08
 2.086233e-08
 1.978316e-08
 1.853349e-08
 1.723386e-08
 1.595668e-08
 1.474091e-08
 1.360415e-08
 1.255131e-08
 1.158038e-08
 1.068593e-08
 9.861167e-09
 9.099048e-09
 8.392879e-09
 7.736537e-09
 7.124546e-09
 6.552060e-09
 6.014804e-09
 5.509001e-09
 5.031301e-09
 4.578710e-09
 4.148536e-09
 3.738338e-09
 3.345884e-09
 2.969116e-09