<VTKFile type="UnstructuredGrid"  version="0.1"   >
<UnstructuredGrid>  
<Piece  NumberOfPoints="     2601"  NumberOfCells="     5000">  
<Points>  
<DataArray  type="Float64"  NumberOfComponents="3"  format="ascii">  
 0.000000 0.000000 0.000000 
 0.020000 0.000000 0.000000 
 0.040000 0.000000 0.000000 
 0.060000 0.000000 0.000000 
 0.080000 0.000000 0.000000 
 0.100000 0.000000 0.000000 
 0.120000 0.000000 0.000000 
 0.140000 0.000000 0.000000 
 0.160000 0.000000 0.000000 
 0.180000 0.000000 0.000000 
 0.200000 0.000000 0.000000 
 0.220000 0.000000 0.000000 
 0.240000 0.000000 0.000000 
 0.260000 0.000000 0.000000 
 0.280000 0.000000 0.000000 
 0.300000 0.000000 0.000000 
 0.320000 0.000000 0.000000 
 0.340000 0.000000 0.000000 
 0.360000 0.000000 0.000000 
 0.380000 0.000000 0.000000 
 0.400000 0.000000 0.000000 
 0.420000 0.000000 0.000000 
 0.440000 0.000000 0.000000 
 0.460000 0.000000 0.000000 
 0.480000 0.000000 0.000000 
 0.500000 0.000000 0.000000 
 0.520000 0.000000 0.000000 
 0.540000 0.000000 0.000000 
 0.560000 0.000000 0.000000 
 0.580000 0.000000 0.000000 
 0.600000 0.000000 0.000000 
 0.620000 0.000000 0.000000 
 0.640000 0.000000 0.000000 
 0.660000 0.000000 0.000000 
 0.680000 0.000000 0.000000 
 0.700000 0.000000 0.000000 
 0.720000 0.000000 0.000000 
 0.740000 0.000000 0.000000 
 0.760000 0.000000 0.000000 
 0.780000 0.000000 0.000000 
 0.800000 0.000000 0.000000 
 0.820000 0.000000 0.000000 
 0.840000 0.000000 0.000000 
 0.860000 0.000000 0.000000 
 0.880000 0.000000 0.000000 
 0.900000 0.000000 0.000000 
 0.920000 0.000000 0.000000 
 0.940000 0.000000 0.000000 
 0.960000 0.000000 0.000000 
 0.980000 0.000000 0.000000 
 1.000000 0.000000 0.000000 
 0.000000 0.020000 0.000000 
 0.020000 0.020000 0.000000 
 0.040000 0.020000 0.000000 
 0.060000 0.020000 0.000000 
 0.080000 0.020000 0.000000 
 0.100000 0.020000 0.000000 
 0.120000 0.020000 0.000000 
 0.140000 0.020000 0.000000 
 0.160000 0.020000 0.000000 
 0.180000 0.020000 0.000000 
 0.200000 0.020000 0.000000 
 0.220000 0.020000 0.000000 
 0.240000 0.020000 0.000000 
 0.260000 0.020000 0.000000 
 0.280000 0.020000 0.000000 
 0.300000 0.020000 0.000000 
 0.320000 0.020000 0.000000 
 0.340000 0.020000 0.000000 
 0.360000 0.020000 0.000000 
 0.380000 0.020000 0.000000 
 0.400000 0.020000 0.000000 
 0.420000 0.020000 0.000000 
 0.440000 0.020000 0.000000 
 0.460000 0.020000 0.000000 
 0.480000 0.020000 0.000000 
 0.500000 0.020000 0.000000 
 0.520000 0.020000 0.000000 
 0.540000 0.020000 0.000000 
 0.560000 0.020000 0.000000 
 0.580000 0.020000 0.000000 
 0.600000 0.020000 0.000000 
 0.620000 0.020000 0.000000 
 0.640000 0.020000 0.000000 
 0.660000 0.020000 0.000000 
 0.680000 0.020000 0.000000 
 0.700000 0.020000 0.000000 
 0.720000 0.020000 0.000000 
 0.740000 0.020000 0.000000 
 0.760000 0.020000 0.000000 
 0.780000 0.020000 0.000000 
 0.800000 0.020000 0.000000 
 0.820000 0.020000 0.000000 
 0.840000 0.020000 0.000000 
 0.860000 0.020000 0.000000 
 0.880000 0.020000 0.000000 
 0.900000 0.020000 0.000000 
 0.920000 0.020000 0.000000 
 0.940000 0.020000 0.000000 
 0.960000 0.020000 0.000000 
 0.980000 0.020000 0.000000 
 1.000000 0.020000 0.000000 
 0.000000 0.040000 0.000000 
 0.020000 0.040000 0.000000 
 0.040000 0.040000 0.000000 
 0.060000 0.040000 0.000000 
 0.080000 0.040000 0.000000 
 0.100000 0.040000 0.000000 
 0.120000 0.040000 0.000000 
 0.140000 0.040000 0.000000 
 0.160000 0.040000 0.000000 
 0.180000 0.040000 0.000000 
 0.200000 0.040000 0.000000 
 0.220000 0.040000 0.000000 
 0.240000 0.040000 0.000000 
 0.260000 0.040000 0.000000 
 0.280000 0.040000 0.000000 
 0.300000 0.040000 0.000000 
 0.320000 0.040000 0.000000 
 0.340000 0.040000 0.000000 
 0.360000 0.040000 0.000000 
 0.380000 0.040000 0.000000 
 0.400000 0.040000 0.000000 
 0.420000 0.040000 0.000000 
 0.440000 0.040000 0.000000 
 0.460000 0.040000 0.000000 
 0.480000 0.040000 0.000000 
 0.500000 0.040000 0.000000 
 0.520000 0.040000 0.000000 
 0.540000 0.040000 0.000000 
 0.560000 0.040000 0.000000 
 0.580000 0.040000 0.000000 
 0.600000 0.040000 0.000000 
 0.620000 0.040000 0.000000 
 0.640000 0.040000 0.000000 
 0.660000 0.040000 0.000000 
 0.680000 0.040000 0.000000 
 0.700000 0.040000 0.000000 
 0.720000 0.040000 0.000000 
 0.740000 0.040000 0.000000 
 0.760000 0.040000 0.000000 
 0.780000 0.040000 0.000000 
 0.800000 0.040000 0.000000 
 0.820000 0.040000 0.000000 
 0.840000 0.040000 0.000000 
 0.860000 0.040000 0.000000 
 0.880000 0.040000 0.000000 
 0.900000 0.040000 0.000000 
 0.920000 0.040000 0.000000 
 0.940000 0.040000 0.000000 
 0.960000 0.040000 0.000000 
 0.980000 0.040000 0.000000 
 1.000000 0.040000 0.000000 
 0.000000 0.060000 0.000000 
 0.020000 0.060000 0.000000 
 0.040000 0.060000 0.000000 
 0.060000 0.060000 0.000000 
 0.080000 0.060000 0.000000 
 0.100000 0.060000 0.000000 
 0.120000 0.060000 0.000000 
 0.140000 0.060000 0.000000 
 0.160000 0.060000 0.000000 
 0.180000 0.060000 0.000000 
 0.200000 0.060000 0.000000 
 0.220000 0.060000 0.000000 
 0.240000 0.060000 0.000000 
 0.260000 0.060000 0.000000 
 0.280000 0.060000 0.000000 
 0.300000 0.060000 0.000000 
 0.320000 0.060000 0.000000 
 0.340000 0.060000 0.000000 
 0.360000 0.060000 0.000000 
 0.380000 0.060000 0.000000 
 0.400000 0.060000 0.000000 
 0.420000 0.060000 0.000000 
 0.440000 0.060000 0.000000 
 0.460000 0.060000 0.000000 
 0.480000 0.060000 0.000000 
 0.500000 0.060000 0.000000 
 0.520000 0.060000 0.000000 
 0.540000 0.060000 0.000000 
 0.560000 0.060000 0.000000 
 0.580000 0.060000 0.000000 
 0.600000 0.060000 0.000000 
 0.620000 0.060000 0.000000 
 0.640000 0.060000 0.000000 
 0.660000 0.060000 0.000000 
 0.680000 0.060000 0.000000 
 0.700000 0.060000 0.000000 
 0.720000 0.060000 0.000000 
 0.740000 0.060000 0.000000 
 0.760000 0.060000 0.000000 
 0.780000 0.060000 0.000000 
 0.800000 0.060000 0.000000 
 0.820000 0.060000 0.000000 
 0.840000 0.060000 0.000000 
 0.860000 0.060000 0.000000 
 0.880000 0.060000 0.000000 
 0.900000 0.060000 0.000000 
 0.920000 0.060000 0.000000 
 0.940000 0.060000 0.000000 
 0.960000 0.060000 0.000000 
 0.980000 0.060000 0.000000 
 1.000000 0.060000 0.000000 
 0.000000 0.080000 0.000000 
 0.020000 0.080000 0.000000 
 0.040000 0.080000 0.000000 
 0.060000 0.080000 0.000000 
 0.080000 0.080000 0.000000 
 0.100000 0.080000 0.000000 
 0.120000 0.080000 0.000000 
 0.140000 0.080000 0.000000 
 0.160000 0.080000 0.000000 
 0.180000 0.080000 0.000000 
 0.200000 0.080000 0.000000 
 0.220000 0.080000 0.000000 
 0.240000 0.080000 0.000000 
 0.260000 0.080000 0.000000 
 0.280000 0.080000 0.000000 
 0.300000 0.080000 0.000000 
 0.320000 0.080000 0.000000 
 0.340000 0.080000 0.000000 
 0.360000 0.080000 0.000000 
 0.380000 0.080000 0.000000 
 0.400000 0.080000 0.000000 
 0.420000 0.080000 0.000000 
 0.440000 0.080000 0.000000 
 0.460000 0.080000 0.000000 
 0.480000 0.080000 0.000000 
 0.500000 0.080000 0.000000 
 0.520000 0.080000 0.000000 
 0.540000 0.080000 0.000000 
 0.560000 0.080000 0.000000 
 0.580000 0.080000 0.000000 
 0.600000 0.080000 0.000000 
 0.620000 0.080000 0.000000 
 0.640000 0.080000 0.000000 
 0.660000 0.080000 0.000000 
 0.680000 0.080000 0.000000 
 0.700000 0.080000 0.000000 
 0.720000 0.080000 0.000000 
 0.740000 0.080000 0.000000 
 0.760000 0.080000 0.000000 
 0.780000 0.080000 0.000000 
 0.800000 0.080000 0.000000 
 0.820000 0.080000 0.000000 
 0.840000 0.080000 0.000000 
 0.860000 0.080000 0.000000 
 0.880000 0.080000 0.000000 
 0.900000 0.080000 0.000000 
 0.920000 0.080000 0.000000 
 0.940000 0.080000 0.000000 
 0.960000 0.080000 0.000000 
 0.980000 0.080000 0.000000 
 1.000000 0.080000 0.000000 
 0.000000 0.100000 0.000000 
 0.020000 0.100000 0.000000 
 0.040000 0.100000 0.000000 
 0.060000 0.100000 0.000000 
 0.080000 0.100000 0.000000 
 0.100000 0.100000 0.000000 
 0.120000 0.100000 0.000000 
 0.140000 0.100000 0.000000 
 0.160000 0.100000 0.000000 
 0.180000 0.100000 0.000000 
 0.200000 0.100000 0.000000 
 0.220000 0.100000 0.000000 
 0.240000 0.100000 0.000000 
 0.260000 0.100000 0.000000 
 0.280000 0.100000 0.000000 
 0.300000 0.100000 0.000000 
 0.320000 0.100000 0.000000 
 0.340000 0.100000 0.000000 
 0.360000 0.100000 0.000000 
 0.380000 0.100000 0.000000 
 0.400000 0.100000 0.000000 
 0.420000 0.100000 0.000000 
 0.440000 0.100000 0.000000 
 0.460000 0.100000 0.000000 
 0.480000 0.100000 0.000000 
 0.500000 0.100000 0.000000 
 0.520000 0.100000 0.000000 
 0.540000 0.100000 0.000000 
 0.560000 0.100000 0.000000 
 0.580000 0.100000 0.000000 
 0.600000 0.100000 0.000000 
 0.620000 0.100000 0.000000 
 0.640000 0.100000 0.000000 
 0.660000 0.100000 0.000000 
 0.680000 0.100000 0.000000 
 0.700000 0.100000 0.000000 
 0.720000 0.100000 0.000000 
 0.740000 0.100000 0.000000 
 0.760000 0.100000 0.000000 
 0.780000 0.100000 0.000000 
 0.800000 0.100000 0.000000 
 0.820000 0.100000 0.000000 
 0.840000 0.100000 0.000000 
 0.860000 0.100000 0.000000 
 0.880000 0.100000 0.000000 
 0.900000 0.100000 0.000000 
 0.920000 0.100000 0.000000 
 0.940000 0.100000 0.000000 
 0.960000 0.100000 0.000000 
 0.980000 0.100000 0.000000 
 1.000000 0.100000 0.000000 
 0.000000 0.120000 0.000000 
 0.020000 0.120000 0.000000 
 0.040000 0.120000 0.000000 
 0.060000 0.120000 0.000000 
 0.080000 0.120000 0.000000 
 0.100000 0.120000 0.000000 
 0.120000 0.120000 0.000000 
 0.140000 0.120000 0.000000 
 0.160000 0.120000 0.000000 
 0.180000 0.120000 0.000000 
 0.200000 0.120000 0.000000 
 0.220000 0.120000 0.000000 
 0.240000 0.120000 0.000000 
 0.260000 0.120000 0.000000 
 0.280000 0.120000 0.000000 
 0.300000 0.120000 0.000000 
 0.320000 0.120000 0.000000 
 0.340000 0.120000 0.000000 
 0.360000 0.120000 0.000000 
 0.380000 0.120000 0.000000 
 0.400000 0.120000 0.000000 
 0.420000 0.120000 0.000000 
 0.440000 0.120000 0.000000 
 0.460000 0.120000 0.000000 
 0.480000 0.120000 0.000000 
 0.500000 0.120000 0.000000 
 0.520000 0.120000 0.000000 
 0.540000 0.120000 0.000000 
 0.560000 0.120000 0.000000 
 0.580000 0.120000 0.000000 
 0.600000 0.120000 0.000000 
[...]
<PointData  Scalars="U"> 
<DataArray  type="Float64"  Name="U"  format="ascii"> 
 0.000000e+00
 0.000000e+00
 0.000000e+00
 0.000000e+00
 0.000000e+00
 0.000000e+00
 0.000000e+00
 0.000000e+00
 0.000000e+00
 0.000000e+00
 0.000000e+00
 0.000000e+00
 0.000000e+00
 0.000000e+00
 0.000000e+00
 0.000000e+00
 0.000000e+00
 0.000000e+00
 0.000000e+00
 0.000000e+00
 0.000000e+00
 0.000000e+00
 0.000000e+00
 0.000000e+00
 0.000000e+00
 0.000000e+00
 0.000000e+00
 0.000000e+00
 0.000000e+00
 0.000000e+00
 0.000000e+00
 0.000000e+00
 0.000000e+00
 0.000000e+00
 0.000000e+00
 0.000000e+00
 0.000000e+00
 0.000000e+00
 0.000000e+00
 0.000000e+00
 0.000000e+00
 0.000000e+00
 0.000000e+00
 0.000000e+00
 0.000000e+00
 0.000000e+00
 0.000000e+00
 0.000000e+00
 0.000000e+00
 0.000000e+00
 0.000000e+00
 0.000000e+00
 5.632154e-11
 1.127443e-10
 1.693390e-10
 2.261181e-10
 2.830136e-10
 3.398632e-10
 3.964043e-10
 4.522784e-10
 5.070435e-10
 5.601941e-10
 6.111864e-10
 6.594661e-10
 7.044961e-10
 7.457825e-10
 7.828954e-10
 8.154853e-10
 8.432923e-10
 8.661499e-10
 8.839831e-10
 8.968017e-10
 9.046907e-10
 9.077987e-10
 9.063246e-10
 9.005054e-10
 8.906043e-10
 8.769003e-10
 8.596793e-10
 8.392272e-10
 8.158241e-10
 7.897407e-10
 7.612357e-10
 7.305536e-10
 6.979246e-10
 6.635637e-10
 6.276708e-10
 5.904313e-10
 5.520162e-10
 5.125822e-10
 4.722727e-10
 4.312176e-10
 3.895337e-10
 3.473247e-10
 3.046815e-10
 2.616812e-10
 2.183838e-10
 1.748214e-10
 1.309556e-10
 8.648378e-11
 3.978673e-11
 0.000000e+00
 0.000000e+00
 1.125366e-10
 2.253069e-10
 3.384802e-10
 4.521037e-10
 5.660563e-10
 6.800186e-10
 7.934616e-10
 9.056551e-10
 1.015695e-09
 1.122545e-09
 1.225088e-09
 1.322189e-09
 1.412747e-09
 1.495752e-09
 1.570329e-09
 1.635769e-09
 1.691549e-09
 1.737339e-09
 1.772993e-09
 1.798543e-09
 1.814171e-09
 1.820186e-09
 1.816999e-09
 1.805095e-09
 1.785013e-09
 1.757318e-09
 1.722589e-09
 1.681404e-09
 1.634326e-09
 1.581901e-09
 1.524646e-09
 1.463052e-09
 1.397579e-09
 1.328657e-09
 1.256686e-09
 1.182036e-09
 1.105049e-09
 1.026038e-09
 9.452889e-10
 8.630619e-10
 7.795901e-10
 6.950813e-10
 6.097176e-10
 5.236554e-10
 4.370234e-10
 3.499162e-10
 2.623831e-10
 1.744422e-10
 8.655441e-11
 0.000000e+00
 0.000000e+00
 1.685072e-10
 3.374457e-10
 5.071425e-10
 6.777266e-10
 8.490539e-10
 1.020659e-09
 1.191739e-09
 1.361163e-09
 1.527523e-09
 1.689198e-09
 1.844440e-09
 1.991470e-09
 2.128573e-09
 2.254177e-09
 2.366931e-09
 2.465746e-09
 2.549829e-09
 2.618691e-09
 2.672134e-09
 2.710229e-09
 2.733281e-09
 2.741787e-09
 2.736397e-09
 2.717869e-09
 2.687035e-09
 2.644768e-09
 2.591953e-09
 2.529469e-09
 2.458173e-09
 2.378886e-09
 2.292390e-09
 2.199424e-09
 2.100677e-09
 1.996794e-09
 1.888375e-09
 1.775973e-09
 1.660101e-09
 1.541227e-09
 1.419779e-09
 1.296147e-09
 1.170679e-09
 1.043688e-09
 9.154475e-10
 7.861942e-10
 6.561306e-10
 5.254269e-10
 3.942343e-10
 2.627363e-10
 1.312381e-10
 0.000000e+00
 0.000000e+00
 2.240290e-10
 4.487926e-10
 6.748713e-10
 9.025517e-10
 1.131716e-09
 1.361771e-09
 1.591623e-09
 1.819700e-09
 2.044016e-09
 2.262278e-09
 2.472013e-09
 2.670704e-09
 2.855933e-09
 3.025499e-09
 3.177521e-09
 3.310504e-09
 3.423379e-09
 3.515506e-09
 3.586661e-09
 3.636990e-09
 3.666962e-09
 3.677304e-09
 3.668945e-09
 3.642955e-09
 3.600494e-09
 3.542764e-09
 3.470982e-09
 3.386341e-09
 3.290002e-09
 3.183071e-09
 3.066598e-09
 2.941568e-09
 2.808903e-09
 2.669461e-09
 2.524039e-09
 2.373375e-09
 2.218148e-09
 2.058982e-09
 1.896447e-09
 1.731060e-09
 1.563286e-09
 1.393539e-09
 1.222184e-09
 1.049538e-09
 8.758739e-10
 7.014292e-10
 5.264167e-10
 3.510464e-10
 1.755274e-10
 0.000000e+00
 0.000000e+00
 2.787898e-10
 5.587748e-10
 8.409301e-10
 1.125812e-09
 1.413402e-09
 1.703005e-09
 1.993214e-09
 2.281944e-09
 2.566532e-09
 2.843880e-09
 3.110646e-09
 3.363438e-09
 3.599010e-09
 3.814431e-09
 4.007222e-09
 4.175444e-09
 4.317745e-09
 4.433357e-09
 4.522067e-09
 4.584153e-09
 4.620305e-09
 4.631545e-09
 4.619139e-09
 4.584521e-09
 4.529221e-09
 4.454811e-09
 4.362861e-09
 4.254904e-09
 4.132413e-09
 3.996789e-09
 3.849352e-09
 3.691337e-09
 3.523895e-09
 3.348097e-09
 3.164936e-09
 2.975330e-09
 2.780125e-09
 2.580097e-09
 2.375959e-09
 2.168352e-09
 1.957858e-09
 1.744991e-09
 1.530204e-09
 1.313892e-09
 1.096394e-09
 8.779990e-10
 6.589592e-10
 4.394950e-10
 2.197949e-10
 0.000000e+00
 0.000000e+00
 3.323182e-10
 6.665158e-10
 1.004164e-09
 1.346250e-09
 1.692956e-09
 2.043519e-09
 2.396185e-09
 2.748259e-09
 3.096245e-09
 3.436056e-09
 3.763278e-09
 4.073446e-09
 4.362314e-09
 4.626084e-09
 4.861590e-09
 5.066405e-09
 5.238892e-09
 5.378193e-09
 5.484168e-09
 5.557303e-09
 5.598600e-09
 5.609459e-09
 5.591562e-09
 5.546775e-09
 5.477057e-09
 5.384392e-09
 5.270738e-09
 5.137988e-09
 4.987944e-09
 4.822307e-09
 4.642670e-09
 4.450518e-09
 4.247230e-09
 4.034085e-09
 3.812267e-09
 3.582872e-09
 3.346912e-09
 3.105314e-09
 2.858927e-09
 2.608522e-09
 2.354792e-09
 2.098351e-09
 1.839740e-09
 1.579425e-09
 1.317803e-09
 1.055209e-09
 7.919212e-10
 5.281714e-10
 2.641477e-10
 0.000000e+00
 0.000000e+00
 3.839152e-10
 7.707067e-10
 1.162825e-09
 1.561909e-09
 1.968484e-09
 2.381769e-09
 2.799611e-09
 3.218562e-09
 3.634077e-09
 4.040814e-09
 4.433002e-09
 4.804832e-09
 5.150821e-09
 5.466127e-09
 5.746782e-09
 5.989824e-09
 6.193347e-09
 6.356461e-09
 6.479194e-09
 6.562357e-09
 6.607381e-09
 6.616158e-09
 6.590891e-09
 6.533964e-09
 6.447834e-09
 6.334951e-09
 6.197697e-09
 6.038348e-09
 5.859048e-09
 5.661806e-09
 5.448487e-09
 5.220819e-09
 4.980406e-09
 4.728729e-09
 4.467160e-09
 4.196968e-09
 3.919323e-09
 3.635305e-09
 3.345900e-09
 3.052005e-09
 2.754423e-09
 2.453870e-09
 2.150969e-09
 1.846255e-09
 1.540176e-09
 1.233104e-09
 9.253382e-10
 6.171148e-10
 3.086199e-10
 0.000000e+00
 0.000000e+00
 4.325636e-10
 8.694339e-10
 1.314330e-09
 1.769854e-09
 2.237071e-09
 2.715243e-09
 3.201744e-09
 3.692168e-09
 4.180615e-09
 4.660113e-09
 5.123141e-09
 5.562168e-09
 5.970158e-09
 6.340993e-09
 6.669764e-09
 6.952934e-09
 7.188365e-09
 7.375239e-09
 7.513894e-09
 7.605627e-09
 7.652460e-09
 7.656930e-09
 7.621891e-09
 7.550353e-09
 7.445352e-09
 7.309863e-09
 7.146730e-09
 6.958634e-09
 6.748073e-09
 6.517360e-09
 6.268629e-09
 6.003847e-09
 5.724828e-09
 5.433249e-09
 5.130661e-09
 4.818499e-09
 4.498093e-09
 4.170669e-09
 3.837350e-09
 3.499158e-09
 3.157011e-09
 2.811723e-09
 2.463997e-09
 2.114435e-09
 1.763531e-09
 1.411684e-09
 1.059204e-09
 7.063232e-10
 3.532131e-10
 0.000000e+00
 0.000000e+00
 4.768060e-10
 9.599459e-10
 1.454947e-09
 1.965801e-09
 2.494383e-09
 3.040085e-09
 3.599699e-09
 4.167571e-09
 4.736007e-09
 5.295882e-09
 5.837368e-09
 6.350696e-09
 6.826857e-09
 7.258154e-09
 7.638583e-09
 7.964005e-09
 8.232136e-09
 8.442393e-09
 8.595639e-09
 8.693881e-09
 8.739955e-09
 8.737237e-09
 8.689395e-09
 8.600192e-09
 8.473338e-09
 8.312391e-09
 8.120695e-09
 7.901354e-09
 7.657219e-09
 7.390903e-09
 7.104796e-09
 6.801088e-09
 6.481790e-09
 6.148759e-09
 5.803717e-09
 5.448258e-09
 5.083865e-09
 4.711910e-09
 4.333654e-09
 3.950248e-09
 3.562723e-09
 3.171993e-09
 2.778845e-09
 2.383940e-09
 1.987814e-09
 1.590884e-09
 1.193459e-09
 7.957536e-10
 3.979055e-10
 0.000000e+00
 0.000000e+00
 5.145778e-10
 1.038336e-09
 1.579353e-09
 2.143598e-09
 2.734134e-09
 3.350601e-09
 3.989051e-09
 4.642168e-09
 5.299844e-09
 5.950052e-09
 6.579881e-09
 7.176617e-09
 7.728706e-09
 8.226499e-09
 8.662723e-09
 9.032653e-09
 9.334024e-09
 9.566749e-09
 9.732527e-09
 9.834393e-09
 9.876289e-09
 9.862681e-09
 9.798249e-09
 9.687656e-09
 9.535381e-09
 9.345626e-09
 9.122265e-09
 8.868826e-09
 8.588509e-09
 8.284205e-09
 7.958537e-09
 7.613892e-09
 7.252461e-09
 6.876261e-09
 6.487169e-09
 6.086932e-09
 5.677181e-09
 5.259433e-09
 4.835090e-09
 4.405435e-09
 3.971620e-09
 3.534661e-09
 3.095430e-09
 2.654646e-09
 2.212882e-09
 1.770563e-09
 1.327983e-09
 8.853175e-10
 4.426508e-10
 0.000000e+00
 0.000000e+00
 5.429819e-10
 1.099113e-09
 1.680037e-09
 2.294523e-09
 2.947346e-09
 3.638562e-09
 4.363263e-09
 5.111880e-09
 5.871003e-09
 6.624635e-09
 7.355687e-09
 8.047513e-09
 8.685254e-09
 9.256844e-09
 9.753574e-09
 1.017023e-08
 1.050485e-08
 1.075827e-08
 1.093348e-08
 1.103496e-08
 1.106816e-08
 1.103894e-08
 1.095323e-08
 1.081675e-08
 1.063485e-08
 1.041241e-08
 1.015386e-08
 9.863127e-09
 9.543740e-09
 9.198831e-09
 8.831220e-09
 8.443457e-09
 8.037876e-09
 7.616635e-09
 7.181748e-09
 6.735103e-09
 6.278475e-09
 5.813530e-09
 5.341817e-09
 4.864759e-09
 4.383636e-09
 3.899578e-09
 3.413541e-09
 2.926309e-09
 2.438481e-09
 1.950484e-09
 1.462575e-09
 9.748722e-10
 4.873743e-10
 0.000000e+00
 0.000000e+00
 5.579832e-10
 1.134608e-09
 1.746484e-09
 2.406310e-09
 3.121323e-09
 3.892245e-09
 4.712908e-09
 5.570646e-09
 6.447470e-09
 7.321876e-09
 8.171028e-09
 8.972971e-09
 9.708526e-09
 1.036264e-08
 1.092505e-08
 1.139030e-08
 1.175725e-08
 1.202827e-08
 1.220829e-08
 1.230388e-08
 1.232245e-08
 1.227166e-08
 1.215893e-08
 1.199120e-08
 1.177476e-08
 1.151523e-08
 1.121755e-08
 1.088602e-08
 1.052444e-08
 1.013612e-08
 9.724019e-09
 9.290809e-09
 8.838926e-09
 8.370635e-09
 7.888065e-09
 7.393237e-09
 6.888067e-09
 6.374375e-09
 5.853867e-09
 5.328120e-09
 4.798561e-09
 4.266442e-09
 3.732818e-09
 3.198537e-09
 2.664224e-09
 2.130291e-09
 1.596943e-09
 1.064208e-09
 5.319673e-10
 0.000000e+00
 0.000000e+00
 5.539995e-10
 1.134192e-09
 1.764057e-09
 2.461807e-09
 3.238219e-09
 4.095082e-09
 5.024572e-09
 6.009731e-09
 7.026132e-09
 8.044525e-09
 9.034059e-09
 9.965522e-09
 1.081406e-08
 1.156096e-08
 1.219441e-08
 1.270925e-08
 1.310600e-08
 1.338954e-08
 1.356768e-08
 1.364985e-08
 1.364608e-08
 1.356623e-08
 1.341951e-08
 1.321422e-08
 1.295766e-08
 1.265611e-08
 1.231499e-08
 1.193891e-08
 1.153181e-08
 1.109713e-08
 1.063789e-08
 1.015681e-08
 9.656362e-09
 9.138895e-09
 8.606626e-09
 8.061695e-09
 7.506164e-09
 6.942014e-09
 6.371130e-09
 5.795265e-09
 5.216014e-09
 4.634774e-09
 4.052716e-09
 3.470759e-09
 2.889553e-09
 2.309481e-09
 1.730674e-09
 1.153033e-09
 5.762780e-10
 0.000000e+00
 0.000000e+00
 5.233658e-10
 1.083217e-09
 1.712485e-09
 2.437120e-09
 3.273028e-09
 4.223739e-09
 5.279293e-09
 6.416752e-09
 7.602534e-09
 8.796323e-09
 9.955914e-09
 1.104206e-08
 1.202239e-08
 1.287385e-08
 1.358336e-08
 1.414703e-08
 1.456845e-08
 1.485648e-08
 1.502311e-08
 1.508171e-08
 1.504567e-08
 1.492752e-08
 1.473850e-08
 1.448837e-08
 1.418537e-08
 1.383644e-08
 1.344729e-08
 1.302271e-08
 1.256669e-08
 1.208266e-08
 1.157358e-08
 1.104214e-08
 1.049080e-08
 9.921942e-09
 9.337838e-09
 8.740740e-09
 8.132862e-09
 7.516368e-09
 6.893346e-09
 6.265763e-09
 5.635416e-09
 5.003882e-09
 4.372470e-09
 3.742185e-09
 3.113705e-09
 2.487371e-09
 1.863207e-09
 1.240949e-09
 6.201007e-10
 0.000000e+00
 0.000000e+00
 4.556507e-10
 9.616533e-10
 1.563853e-09
 2.299065e-09
 3.190737e-09
 4.245338e-09
 5.450288e-09
 6.774303e-09
 8.170614e-09
 9.582838e-09
 1.095241e-08
 1.222600e-08
 1.336131e-08
 1.433026e-08
 1.511938e-08
 1.572793e-08
 1.616481e-08
 1.644502e-08
 1.658658e-08
 1.660808e-08
 1.652713e-08
 1.635941e-08
 1.611836e-08
 1.581514e-08
 1.545884e-08
 1.505681e-08
 1.461490e-08
 1.413785e-08
 1.362953e-08
 1.309318e-08
 1.253160e-08
 1.194733e-08
 1.134276e-08
 1.072022e-08
 1.008204e-08
 9.430558e-09
 8.768162e-09
 8.097230e-09
 7.420096e-09
 6.738989e-09
 6.055961e-09
 5.372816e-09
 4.691041e-09
 4.011751e-09
 3.335655e-09
 2.663042e-09
 1.993794e-09
 1.327428e-09
 6.631615e-10
 0.000000e+00
 0.000000e+00
 3.368340e-10
 7.423840e-10
 1.279962e-09
 2.001675e-09
 2.942276e-09
 4.113385e-09
 5.499560e-09
 7.057907e-09
 8.722421e-09
 1.041292e-08
 1.204680e-08
 1.355067e-08
 1.486909e-08
 1.596867e-08
 1.683757e-08
 1.748152e-08
 1.791831e-08
 1.817229e-08
 1.826990e-08
 1.823657e-08
 1.809497e-08
 1.786426e-08
 1.756004e-08
 1.719468e-08
 1.677782e-08
 1.631686e-08
 1.581750e-08
 1.528416e-08
 1.472033e-08
 1.412888e-08
 1.351228e-08
 1.287282e-08
 1.221270e-08
 1.153416e-08
 1.083954e-08
 1.013129e-08
 9.411992e-09
 8.684276e-09
 7.950790e-09
 7.214094e-09
 6.476571e-09
 5.740319e-09
 5.007058e-09
 4.278052e-09
 3.554055e-09
 2.835287e-09
 2.121449e-09
 1.411771e-09
 7.050987e-10
 0.000000e+00
 0.000000e+00
 1.484133e-10
 3.892339e-10
 8.090335e-10
 1.481495e-09
 2.458695e-09
 3.761653e-09
 5.372675e-09
 7.232896e-09
 9.247833e-09
 1.130126e-08
 1.327434e-08
 1.506461e-08
 1.659937e-08
 1.784074e-08
 1.878273e-08
 1.944334e-08
 1.985492e-08
 2.005573e-08
 2.008368e-08
 1.997273e-08
 1.975132e-08
 1.944206e-08
 1.906240e-08
 1.862537e-08
 1.814061e-08
 1.761510e-08
 1.705393e-08
 1.646085e-08
 1.583868e-08
 1.518968e-08
 1.451583e-08
 1.381898e-08
 1.310107e-08
 1.236420e-08
 1.161068e-08
 1.084309e-08
 1.006424e-08
 9.277081e-09
 8.484662e-09
 7.689979e-09
 6.895846e-09
 6.104753e-09
 5.318733e-09
 4.539255e-09
 3.767138e-09
 3.002522e-09
 2.244877e-09
 1.493063e-09
 7.454379e-10
 0.000000e+00
 0.000000e+00
 -1.333499e-10
 -1.449904e-10
 8.187003e-11
 6.513582e-10
 1.642754e-09
 3.094761e-09
 4.990406e-09
 7.249387e-09
 9.734330e-09
 1.227283e-08
 1.468991e-08
 1.684009e-08
 1.862851e-08
 2.001621e-08
 2.101164e-08
 2.165508e-08
 2.200219e-08
 2.211131e-08
 2.203538e-08
 2.181839e-08
 2.149462e-08
 2.108956e-08
 2.062154e-08
 2.010338e-08
 1.954382e-08
 1.894877e-08
 1.832213e-08
 1.766654e-08
 1.698381e-08
 1.627534e-08
 1.554237e-08
 1.478622e-08
 1.400844e-08
 1.321092e-08
 1.239593e-08
 1.156619e-08
 1.072480e-08
 9.875138e-09
 9.020769e-09
 8.165261e-09
 7.312004e-09
 6.464017e-09
 5.623760e-09
 4.792981e-09
 3.972607e-09
 3.162685e-09
 2.362390e-09
 1.570106e-09
 7.835582e-10
 0.000000e+00
 0.000000e+00
 -5.375577e-10
 -9.196916e-10
 -9.919471e-10
 -6.074538e-10
 3.567177e-10
 1.973266e-09
 4.234813e-09
 7.033761e-09
 1.016685e-08
 1.337107e-08
 1.638128e-08
 1.898703e-08
 2.106650e-08
 2.258923e-08
 2.359502e-08
 2.416342e-08
 2.438646e-08
 2.435034e-08
 2.412649e-08
 2.376936e-08
 2.331800e-08
 2.279910e-08
 2.223017e-08
 2.162230e-08
 2.098221e-08
 2.031381e-08
 1.961916e-08
 1.889930e-08
 1.815466e-08
 1.738550e-08
 1.659214e-08
 1.577516e-08
 1.493563e-08
 1.407516e-08
 1.319599e-08
 1.230100e-08
 1.139366e-08
 1.047791e-08
 9.557984e-09
 8.638229e-09
 7.722800e-09
 6.815431e-09
 5.919168e-09
 5.036155e-09
 4.167478e-09
 3.313084e-09
 2.471781e-09
 1.641335e-09
 8.186471e-10
 0.000000e+00
 0.000000e+00
 -1.097188e-09
 -2.005247e-09
 -2.526196e-09
 -2.454180e-09
 -1.595299e-09
 1.893439e-10
 2.924920e-09
 6.473352e-09
 1.052793e-08
 1.467314e-08
 1.849282e-08
 2.167619e-08
 2.407317e-08
 2.568572e-08
 2.661757e-08
 2.701588e-08
 2.702723e-08
 2.677418e-08
 2.634827e-08
 2.581250e-08
 2.520742e-08
 2.455760e-08
 2.387703e-08
 2.317297e-08
 2.244864e-08
 2.170491e-08
 2.094132e-08
 2.015679e-08
 1.935005e-08
 1.851992e-08
 1.766558e-08
 1.678675e-08
 1.588387e-08
 1.495822e-08
 1.401198e-08
 1.304825e-08
 1.207098e-08
 1.108485e-08
 1.009501e-08
 9.106796e-09
 8.125422e-09
 7.155588e-09
 6.201146e-09
 5.264799e-09
 4.347876e-09
 3.450217e-09
 2.570168e-09
 1.704700e-09
 8.496410e-10
 0.000000e+00
 0.000000e+00
 -1.844198e-09
 -3.476058e-09
 -4.654699e-09
 -5.096415e-09
 -4.492224e-09
 -2.574008e-09
 7.720541e-10
 5.387128e-09
 1.079835e-08
 1.631991e-08
 2.126942e-08
 2.517828e-08
 2.788141e-08
 2.946965e-08
 3.017294e-08
 3.025084e-08
 2.992699e-08
 2.936601e-08
 2.867617e-08
 2.792232e-08
 2.713984e-08
 2.634579e-08
 2.554673e-08
 2.474353e-08
 2.393428e-08
 2.311576e-08
 2.228438e-08
 2.143653e-08
 2.056889e-08
 1.967865e-08
 1.876363e-08
 1.782253e-08
 1.685504e-08
 1.586203e-08
 1.484560e-08
 1.380914e-08
 1.275726e-08
 1.169555e-08
 1.063037e-08
 9.568442e-09
 8.516361e-09
 7.480160e-09
 6.464799e-09
 5.473766e-09
 4.508757e-09
 3.569508e-09
 2.653780e-09
 1.757518e-09
 8.751449e-10
 0.000000e+00
 0.000000e+00
 -2.798414e-09
 -5.392073e-09
 -7.514491e-09
 -8.789844e-09
 -8.728520e-09
 -6.812832e-09
 -2.706618e-09
 3.465527e-09
 1.095919e-08
 1.857829e-08
 2.514152e-08
 2.993067e-08
 3.282727e-08
 3.414208e-08
 3.434647e-08
 3.387701e-08
 3.305425e-08
 3.207946e-08
 3.106326e-08
 3.005784e-08
 2.908214e-08
 2.813810e-08
 2.722012e-08
 2.631997e-08
 2.542910e-08
 2.453950e-08
 2.364396e-08
 2.273612e-08
 2.181045e-08
 2.086228e-08
 1.988794e-08
 1.888489e-08
 1.785195e-08
 1.678946e-08
 1.569944e-08
 1.458565e-08
 1.345348e-08
 1.230977e-08
 1.116248e-08
 1.002014e-08
 8.891244e-09
 7.783640e-09
 6.703823e-09
 5.656378e-09
 4.643545e-09
 3.664968e-09
 2.717672e-09
 1.796263e-09
 8.933249e-10
 0.000000e+00
 0.000000e+00
 -3.946780e-09
 -7.760017e-09
 -1.119986e-08
 -1.381142e-08
 -1.484672e-08
 -1.332207e-08
 -8.364879e-09
 1.371206e-10
 1.099772e-08
 2.198016e-08
 3.089723e-08
 3.664952e-08
 3.937894e-08
 3.991558e-08
 3.917236e-08
 3.783583e-08
 3.631839e-08
 3.482484e-08
 3.343425e-08
 3.216102e-08
 3.099166e-08
 2.990398e-08
 2.887564e-08
 2.788724e-08
 2.692281e-08
 2.596931e-08
 2.501598e-08
 2.405369e-08
 2.307467e-08
 2.207229e-08
 2.104118e-08
 1.997740e-08
 1.887868e-08
 1.774471e-08
 1.657735e-08
 1.538078e-08
 1.416141e-08
 1.292769e-08
 1.168965e-08
 1.045826e-08
 9.244613e-09
 8.059011e-09
 6.910076e-09
 5.803941e-09
 4.743635e-09
 3.728737e-09
 2.755337e-09
 1.816291e-09
 9.017647e-10
 0.000000e+00
 0.000000e+00
 -5.211199e-09
 -1.046501e-08
 -1.566131e-08
 -2.036140e-08
 -2.353267e-08
 -2.339163e-08
 -1.780939e-08
 -5.754807e-09
 1.092499e-08
 2.765950e-08
 4.004655e-08
 4.650518e-08
 4.812696e-08
 4.692360e-08
 4.454304e-08
 4.194082e-08
 3.953841e-08
 3.745721e-08
 3.568373e-08
 3.415913e-08
 3.281963e-08
 3.161108e-08
 3.049183e-08
 2.943104e-08
 2.840594e-08
 2.739924e-08
 2.639716e-08
 2.538820e-08
 2.436244e-08
 2.331125e-08
 2.222737e-08
 2.110517e-08
 1.994103e-08
 1.873373e-08
 1.748486e-08
 1.619905e-08
 1.488396e-08
 1.355008e-08
 1.221019e-08
 1.087852e-08
 9.569653e-09
 8.297293e-09
 7.073006e-09
 5.905092e-09
 4.797724e-09
 3.750464e-09
 2.758193e-09
 1.811474e-09
 8.972738e-10
 0.000000e+00
 0.000000e+00
 -6.410834e-09
 -1.317345e-08
 -2.051892e-08
 -2.830052e-08
 -3.543891e-08
 -3.906479e-08
 -3.426640e-08
 -1.682717e-08
 1.083524e-08
 3.825907e-08
 5.561678e-08
 6.132744e-08
 5.960872e-08
 5.498098e-08
 5.004569e-08
 4.579849e-08
 4.241695e-08
 3.977560e-08
 3.768417e-08
 3.597406e-08
 3.451884e-08
 3.323072e-08
 3.205087e-08
 3.094003e-08
 2.987125e-08
 2.882490e-08
 2.778546e-08
 2.673972e-08
 2.567586e-08
 2.458317e-08
 2.345222e-08
 2.227530e-08
 2.104699e-08
 1.976482e-08
 1.842984e-08
 1.704708e-08
 1.562568e-08
 1.417872e-08
 1.272258e-08
 1.127583e-08
 9.857825e-09
 8.486950e-09
 7.178865e-09
 5.944915e-09
 4.790914e-09
 3.716469e-09
 2.714892e-09
 1.773704e-09
 8.756319e-10
 0.000000e+00
 0.000000e+00
 -7.242137e-09
 -1.524454e-08
 -2.479706e-08
 -3.657810e-08
 -5.042992e-08
 -6.313551e-08
 -6.459406e-08
 -3.986440e-08
 1.113646e-08
 6.069108e-08
 8.386311e-08
 8.349515e-08
 7.360884e-08
 6.307353e-08
 5.473451e-08
 4.874787e-08
 4.454843e-08
 4.154934e-08
 3.931087e-08
 3.754067e-08
 3.605574e-08
 3.474528e-08
 3.354290e-08
 3.240814e-08
 3.131480e-08
 3.024400e-08
 2.918027e-08
 2.810954e-08
 2.701832e-08
 2.589363e-08
 2.472343e-08
 2.349731e-08
 2.220741e-08
 2.084939e-08
 1.942330e-08
 1.793441e-08
 1.639353e-08
 1.481694e-08
 1.322570e-08
 1.164424e-08
 1.009841e-08
 8.613087e-09
 7.209654e-09
 5.903736e-09
 4.703483e-09
 3.608626e-09
 2.610394e-09
 1.692244e-09
 8.312521e-10
 0.000000e+00
 0.000000e+00
 -7.321844e-09
 -1.576044e-08
 -2.674678e-08
 -4.235345e-08
 -6.533356e-08
 -9.693535e-08
 -1.235748e-07
 -9.568948e-08
 1.361502e-08
 1.158790e-07
 1.372040e-07
 1.137685e-07
 8.720181e-08
 6.858300e-08
 5.698508e-08
 4.991907e-08
 4.550776e-08
 4.258772e-08
 4.048739e-08
 3.883372e-08
 3.742534e-08
 3.615589e-08
 3.496957e-08
 3.383596e-08
 3.273631e-08
 3.165622e-08
 3.058216e-08
 2.949993e-08
 2.839439e-08
 2.724988e-08
 2.605098e-08
 2.478369e-08
 2.343671e-08
 2.200288e-08
 2.048051e-08
 1.887467e-08
 1.719790e-08
 1.547039e-08
 1.371928e-08
 1.197685e-08