<VTKFile type="UnstructuredGrid"  version="0.1"   >
<UnstructuredGrid>  
<Piece  NumberOfPoints="     2601"  NumberOfCells="     5000">  
<Points>  
<DataArray  type="Float64"  NumberOfComponents="3"  format="ascii">  
 0.000000 0.000000 0.000000 
 0.020000 0.000000 0.000000 
 0.040000 0.000000 0.000000 
 0.060000 0.000000 0.000000 
 0.080000 0.000000 0.000000 
 0.100000 0.000000 0.000000 
 0.120000 0.000000 0.000000 
 0.140000 0.000000 0.000000 
 0.160000 0.000000 0.000000 
 0.180000 0.000000 0.000000 
 0.200000 0.000000 0.000000 
 0.220000 0.000000 0.000000 
 0.240000 0.000000 0.000000 
 0.260000 0.000000 0.000000 
 0.280000 0.000000 0.000000 
 0.300000 0.000000 0.000000 
 0.320000 0.000000 0.000000 
 0.340000 0.000000 0.000000 
 0.360000 0.000000 0.000000 
 0.380000 0.000000 0.000000 
 0.400000 0.000000 0.000000 
 0.420000 0.000000 0.000000 
 0.440000 0.000000 0.000000 
 0.460000 0.000000 0.000000 
 0.480000 0.000000 0.000000 
 0.500000 0.000000 0.000000 
 0.520000 0.000000 0.000000 
 0.540000 0.000000 0.000000 
 0.560000 0.000000 0.000000 
 0.580000 0.000000 0.000000 
 0.600000 0.000000 0.000000 
 0.620000 0.000000 0.000000 
 0.640000 0.000000 0.000000 
 0.660000 0.000000 0.000000 
 0.680000 0.000000 0.000000 
 0.700000 0.000000 0.000000 
 0.720000 0.000000 0.000000 
 0.740000 0.000000 0.000000 
 0.760000 0.000000 0.000000 
 0.780000 0.000000 0.000000 
 0.800000 0.000000 0.000000 
 0.820000 0.000000 0.000000 
 0.840000 0.000000 0.000000 
 0.860000 0.000000 0.000000 
 0.880000 0.000000 0.000000 
 0.900000 0.000000 0.000000 
 0.920000 0.000000 0.000000 
 0.940000 0.000000 0.000000 
 0.960000 0.000000 0.000000 
 0.980000 0.000000 0.000000 
 1.000000 0.000000 0.000000 
 0.000000 0.020000 0.000000 
 0.020000 0.020000 0.000000 
 0.040000 0.020000 0.000000 
 0.060000 0.020000 0.000000 
 0.080000 0.020000 0.000000 
 0.100000 0.020000 0.000000 
 0.120000 0.020000 0.000000 
 0.140000 0.020000 0.000000 
 0.160000 0.020000 0.000000 
 0.180000 0.020000 0.000000 
 0.200000 0.020000 0.000000 
 0.220000 0.020000 0.000000 
 0.240000 0.020000 0.000000 
 0.260000 0.020000 0.000000 
 0.280000 0.020000 0.000000 
 0.300000 0.020000 0.000000 
 0.320000 0.020000 0.000000 
 0.340000 0.020000 0.000000 
 0.360000 0.020000 0.000000 
 0.380000 0.020000 0.000000 
 0.400000 0.020000 0.000000 
 0.420000 0.020000 0.000000 
 0.440000 0.020000 0.000000 
 0.460000 0.020000 0.000000 
 0.480000 0.020000 0.000000 
 0.500000 0.020000 0.000000 
 0.520000 0.020000 0.000000 
 0.540000 0.020000 0.000000 
 0.560000 0.020000 0.000000 
 0.580000 0.020000 0.000000 
 0.600000 0.020000 0.000000 
 0.620000 0.020000 0.000000 
 0.640000 0.020000 0.000000 
 0.660000 0.020000 0.000000 
 0.680000 0.020000 0.000000 
 0.700000 0.020000 0.000000 
 0.720000 0.020000 0.000000 
 0.740000 0.020000 0.000000 
 0.760000 0.020000 0.000000 
 0.780000 0.020000 0.000000 
 0.800000 0.020000 0.000000 
 0.820000 0.020000 0.000000 
 0.840000 0.020000 0.000000 
 0.860000 0.020000 0.000000 
 0.880000 0.020000 0.000000 
 0.900000 0.020000 0.000000 
 0.920000 0.020000 0.000000 
 0.940000 0.020000 0.000000 
 0.960000 0.020000 0.000000 
 0.980000 0.020000 0.000000 
 1.000000 0.020000 0.000000 
 0.000000 0.040000 0.000000 
 0.020000 0.040000 0.000000 
 0.040000 0.040000 0.000000 
 0.060000 0.040000 0.000000 
 0.080000 0.040000 0.000000 
 0.100000 0.040000 0.000000 
 0.120000 0.040000 0.000000 
 0.140000 0.040000 0.000000 
 0.160000 0.040000 0.000000 
 0.180000 0.040000 0.000000 
 0.200000 0.040000 0.000000 
 0.220000 0.040000 0.000000 
 0.240000 0.040000 0.000000 
 0.260000 0.040000 0.000000 
 0.280000 0.040000 0.000000 
 0.300000 0.040000 0.000000 
 0.320000 0.040000 0.000000 
 0.340000 0.040000 0.000000 
 0.360000 0.040000 0.000000 
 0.380000 0.040000 0.000000 
 0.400000 0.040000 0.000000 
 0.420000 0.040000 0.000000 
 0.440000 0.040000 0.000000 
 0.460000 0.040000 0.000000 
 0.480000 0.040000 0.000000 
 0.500000 0.040000 0.000000 
 0.520000 0.040000 0.000000 
 0.540000 0.040000 0.000000 
 0.560000 0.040000 0.000000 
 0.580000 0.040000 0.000000 
 0.600000 0.040000 0.000000 
 0.620000 0.040000 0.000000 
 0.640000 0.040000 0.000000 
 0.660000 0.040000 0.000000 
 0.680000 0.040000 0.000000 
 0.700000 0.040000 0.000000 
 0.720000 0.040000 0.000000 
 0.740000 0.040000 0.000000 
 0.760000 0.040000 0.000000 
 0.780000 0.040000 0.000000 
 0.800000 0.040000 0.000000 
 0.820000 0.040000 0.000000 
 0.840000 0.040000 0.000000 
 0.860000 0.040000 0.000000 
 0.880000 0.040000 0.000000 
 0.900000 0.040000 0.000000 
 0.920000 0.040000 0.000000 
 0.940000 0.040000 0.000000 
 0.960000 0.040000 0.000000 
 0.980000 0.040000 0.000000 
 1.000000 0.040000 0.000000 
 0.000000 0.060000 0.000000 
 0.020000 0.060000 0.000000 
 0.040000 0.060000 0.000000 
 0.060000 0.060000 0.000000 
 0.080000 0.060000 0.000000 
 0.100000 0.060000 0.000000 
 0.120000 0.060000 0.000000 
 0.140000 0.060000 0.000000 
 0.160000 0.060000 0.000000 
 0.180000 0.060000 0.000000 
 0.200000 0.060000 0.000000 
 0.220000 0.060000 0.000000 
 0.240000 0.060000 0.000000 
 0.260000 0.060000 0.000000 
 0.280000 0.060000 0.000000 
 0.300000 0.060000 0.000000 
 0.320000 0.060000 0.000000 
 0.340000 0.060000 0.000000 
 0.360000 0.060000 0.000000 
 0.380000 0.060000 0.000000 
 0.400000 0.060000 0.000000 
 0.420000 0.060000 0.000000 
 0.440000 0.060000 0.000000 
 0.460000 0.060000 0.000000 
 0.480000 0.060000 0.000000 
 0.500000 0.060000 0.000000 
 0.520000 0.060000 0.000000 
 0.540000 0.060000 0.000000 
 0.560000 0.060000 0.000000 
 0.580000 0.060000 0.000000 
 0.600000 0.060000 0.000000 
 0.620000 0.060000 0.000000 
 0.640000 0.060000 0.000000 
 0.660000 0.060000 0.000000 
 0.680000 0.060000 0.000000 
 0.700000 0.060000 0.000000 
 0.720000 0.060000 0.000000 
 0.740000 0.060000 0.000000 
 0.760000 0.060000 0.000000 
 0.780000 0.060000 0.000000 
 0.800000 0.060000 0.000000 
 0.820000 0.060000 0.000000 
 0.840000 0.060000 0.000000 
 0.860000 0.060000 0.000000 
 0.880000 0.060000 0.000000 
 0.900000 0.060000 0.000000 
 0.920000 0.060000 0.000000 
 0.940000 0.060000 0.000000 
 0.960000 0.060000 0.000000 
 0.980000 0.060000 0.000000 
 1.000000 0.060000 0.000000 
 0.000000 0.080000 0.000000 
 0.020000 0.080000 0.000000 
 0.040000 0.080000 0.000000 
 0.060000 0.080000 0.000000 
 0.080000 0.080000 0.000000 
 0.100000 0.080000 0.000000 
 0.120000 0.080000 0.000000 
 0.140000 0.080000 0.000000 
 0.160000 0.080000 0.000000 
 0.180000 0.080000 0.000000 
 0.200000 0.080000 0.000000 
 0.220000 0.080000 0.000000 
 0.240000 0.080000 0.000000 
 0.260000 0.080000 0.000000 
 0.280000 0.080000 0.000000 
 0.300000 0.080000 0.000000 
 0.320000 0.080000 0.000000 
 0.340000 0.080000 0.000000 
 0.360000 0.080000 0.000000 
 0.380000 0.080000 0.000000 
 0.400000 0.080000 0.000000 
 0.420000 0.080000 0.000000 
 0.440000 0.080000 0.000000 
 0.460000 0.080000 0.000000 
 0.480000 0.080000 0.000000 
 0.500000 0.080000 0.000000 
 0.520000 0.080000 0.000000 
 0.540000 0.080000 0.000000 
 0.560000 0.080000 0.000000 
 0.580000 0.080000 0.000000 
 0.600000 0.080000 0.000000 
 0.620000 0.080000 0.000000 
 0.640000 0.080000 0.000000 
 0.660000 0.080000 0.000000 
 0.680000 0.080000 0.000000 
 0.700000 0.080000 0.000000 
 0.720000 0.080000 0.000000 
 0.740000 0.080000 0.000000 
 0.760000 0.080000 0.000000 
 0.780000 0.080000 0.000000 
 0.800000 0.080000 0.000000 
 0.820000 0.080000 0.000000 
 0.840000 0.080000 0.000000 
 0.860000 0.080000 0.000000 
 0.880000 0.080000 0.000000 
 0.900000 0.080000 0.000000 
 0.920000 0.080000 0.000000 
 0.940000 0.080000 0.000000 
 0.960000 0.080000 0.000000 
 0.980000 0.080000 0.000000 
 1.000000 0.080000 0.000000 
 0.000000 0.100000 0.000000 
 0.020000 0.100000 0.000000 
 0.040000 0.100000 0.000000 
 0.060000 0.100000 0.000000 
 0.080000 0.100000 0.000000 
 0.100000 0.100000 0.000000 
 0.120000 0.100000 0.000000 
 0.140000 0.100000 0.000000 
 0.160000 0.100000 0.000000 
 0.180000 0.100000 0.000000 
 0.200000 0.100000 0.000000 
 0.220000 0.100000 0.000000 
 0.240000 0.100000 0.000000 
 0.260000 0.100000 0.000000 
 0.280000 0.100000 0.000000 
 0.300000 0.100000 0.000000 
 0.320000 0.100000 0.000000 
 0.340000 0.100000 0.000000 
 0.360000 0.100000 0.000000 
 0.380000 0.100000 0.000000 
 0.400000 0.100000 0.000000 
 0.420000 0.100000 0.000000 
 0.440000 0.100000 0.000000 
 0.460000 0.100000 0.000000 
 0.480000 0.100000 0.000000 
 0.500000 0.100000 0.000000 
 0.520000 0.100000 0.000000 
 0.540000 0.100000 0.000000 
 0.560000 0.100000 0.000000 
 0.580000 0.100000 0.000000 
 0.600000 0.100000 0.000000 
 0.620000 0.100000 0.000000 
 0.640000 0.100000 0.000000 
 0.660000 0.100000 0.000000 
 0.680000 0.100000 0.000000 
 0.700000 0.100000 0.000000 
 0.720000 0.100000 0.000000 
 0.740000 0.100000 0.000000 
 0.760000 0.100000 0.000000 
 0.780000 0.100000 0.000000 
 0.800000 0.100000 0.000000 
 0.820000 0.100000 0.000000 
 0.840000 0.100000 0.000000 
 0.860000 0.100000 0.000000 
 0.880000 0.100000 0.000000 
 0.900000 0.100000 0.000000 
 0.920000 0.100000 0.000000 
 0.940000 0.100000 0.000000 
 0.960000 0.100000 0.000000 
 0.980000 0.100000 0.000000 
 1.000000 0.100000 0.000000 
 0.000000 0.120000 0.000000 
 0.020000 0.120000 0.000000 
 0.040000 0.120000 0.000000 
 0.060000 0.120000 0.000000 
 0.080000 0.120000 0.000000 
 0.100000 0.120000 0.000000 
 0.120000 0.120000 0.000000 
 0.140000 0.120000 0.000000 
 0.160000 0.120000 0.000000 
 0.180000 0.120000 0.000000 
 0.200000 0.120000 0.000000 
 0.220000 0.120000 0.000000 
 0.240000 0.120000 0.000000 
 0.260000 0.120000 0.000000 
 0.280000 0.120000 0.000000 
 0.300000 0.120000 0.000000 
 0.320000 0.120000 0.000000 
 0.340000 0.120000 0.000000 
 0.360000 0.120000 0.000000 
 0.380000 0.120000 0.000000 
 0.400000 0.120000 0.000000 
 0.420000 0.120000 0.000000 
 0.440000 0.120000 0.000000 
 0.460000 0.120000 0.000000 
 0.480000 0.120000 0.000000 
 0.500000 0.120000 0.000000 
 0.520000 0.120000 0.000000 
 0.540000 0.120000 0.000000 
 0.560000 0.120000 0.000000 
 0.580000 0.120000 0.000000 
 0.600000 0.120000 0.000000 
[...]
<PointData  Scalars="U"> 
<DataArray  type="Float64"  Name="U"  format="ascii"> 
 0.000000e+00
 0.000000e+00
 0.000000e+00
 0.000000e+00
 0.000000e+00
 0.000000e+00
 0.000000e+00
 0.000000e+00
 0.000000e+00
 0.000000e+00
 0.000000e+00
 0.000000e+00
 0.000000e+00
 0.000000e+00
 0.000000e+00
 0.000000e+00
 0.000000e+00
 0.000000e+00
 0.000000e+00
 0.000000e+00
 0.000000e+00
 0.000000e+00
 0.000000e+00
 0.000000e+00
 0.000000e+00
 0.000000e+00
 0.000000e+00
 0.000000e+00
 0.000000e+00
 0.000000e+00
 0.000000e+00
 0.000000e+00
 0.000000e+00
 0.000000e+00
 0.000000e+00
 0.000000e+00
 0.000000e+00
 0.000000e+00
 0.000000e+00
 0.000000e+00
 0.000000e+00
 0.000000e+00
 0.000000e+00
 0.000000e+00
 0.000000e+00
 0.000000e+00
 0.000000e+00
 0.000000e+00
 0.000000e+00
 0.000000e+00
 0.000000e+00
 0.000000e+00
 -1.195379e-09
 -2.429309e-09
 -3.727706e-09
 -5.097129e-09
 -6.526864e-09
 -7.998377e-09
 -9.497048e-09
 -1.102025e-08
 -1.257780e-08
 -1.418439e-08
 -1.584647e-08
 -1.754687e-08
 -1.922910e-08
 -2.078342e-08
 -2.203969e-08
 -2.277880e-08
 -2.277870e-08
 -2.190073e-08
 -2.018788e-08
 -1.790925e-08
 -1.549263e-08
 -1.336363e-08
 -1.179026e-08
 -1.082577e-08
 -1.035837e-08
 -1.020652e-08
 -1.019811e-08
 -1.020899e-08
 -1.016829e-08
 -1.004725e-08
 -9.844388e-09
 -9.573206e-09
 -9.253660e-09
 -8.906816e-09
 -8.551493e-09
 -8.201975e-09
 -7.866354e-09
 -7.545385e-09
 -7.232077e-09
 -6.912258e-09
 -6.566295e-09
 -6.171836e-09
 -5.707190e-09
 -5.154679e-09
 -4.503330e-09
 -3.750300e-09
 -2.900334e-09
 -1.960640e-09
 -9.151294e-10
 0.000000e+00
 0.000000e+00
 -2.349924e-09
 -4.790654e-09
 -7.381288e-09
 -1.013257e-08
 -1.301272e-08
 -1.597182e-08
 -1.897187e-08
 -2.200713e-08
 -2.510526e-08
 -2.830933e-08
 -3.164805e-08
 -3.510290e-08
 -3.857555e-08
 -4.185571e-08
 -4.459479e-08
 -4.631015e-08
 -4.646705e-08
 -4.467753e-08
 -4.097106e-08
 -3.595594e-08
 -3.066813e-08
 -2.613253e-08
 -2.294286e-08
 -2.114353e-08
 -2.040402e-08
 -2.027856e-08
 -2.038623e-08
 -2.047664e-08
 -2.042140e-08
 -2.017869e-08
 -1.975809e-08
 -1.919491e-08
 -1.853421e-08
 -1.782134e-08
 -1.709613e-08
 -1.638881e-08
 -1.571674e-08
 -1.508188e-08
 -1.446972e-08
 -1.385019e-08
 -1.318119e-08
 -1.241455e-08
 -1.150340e-08
 -1.040960e-08
 -9.109701e-09
 -7.598289e-09
 -5.888493e-09
 -4.010657e-09
 -2.019829e-09
 0.000000e+00
 0.000000e+00
 -3.407922e-09
 -6.993356e-09
 -1.086657e-08
 -1.503596e-08
 -1.942189e-08
 -2.391029e-08
 -2.841764e-08
 -3.293400e-08
 -3.752447e-08
 -4.229171e-08
 -4.732022e-08
 -5.262238e-08
 -5.809075e-08
 -6.344457e-08
 -6.816127e-08
 -7.142167e-08
 -7.217416e-08
 -6.947765e-08
 -6.314387e-08
 -5.427280e-08
 -4.500944e-08
 -3.745482e-08
 -3.264061e-08
 -3.038520e-08
 -2.984995e-08
 -3.014126e-08
 -3.061261e-08
 -3.090427e-08
 -3.087022e-08
 -3.049206e-08
 -2.981580e-08
 -2.891407e-08
 -2.786598e-08
 -2.674659e-08
 -2.562071e-08
 -2.453781e-08
 -2.352708e-08
 -2.259301e-08
 -2.171267e-08
 -2.083653e-08
 -1.989396e-08
 -1.880327e-08
 -1.748476e-08
 -1.587372e-08
 -1.393075e-08
 -1.164747e-08
 -9.047510e-09
 -6.184297e-09
 -3.137126e-09
 0.000000e+00
 0.000000e+00
 -4.276211e-09
 -8.889825e-09
 -1.403980e-08
 -1.971674e-08
 -2.573433e-08
 -3.184338e-08
 -3.786805e-08
 -4.379354e-08
 -4.976373e-08
 -5.600055e-08
 -6.269891e-08
 -6.994735e-08
 -7.768020e-08
 -8.561823e-08
 -9.313707e-08
 -9.904885e-08
 -1.014567e-07
 -9.815454e-08
 -8.805777e-08
 -7.297222e-08
 -5.743308e-08
 -4.581273e-08
 -3.967101e-08
 -3.790791e-08
 -3.851813e-08
 -3.987450e-08
 -4.105433e-08
 -4.167810e-08
 -4.167316e-08
 -4.110747e-08
 -4.009979e-08
 -3.877884e-08
 -3.726731e-08
 -3.567579e-08
 -3.409893e-08
 -3.261046e-08
 -3.125611e-08
 -3.004585e-08
 -2.894776e-08
 -2.788738e-08
 -2.675515e-08
 -2.542242e-08
 -2.376301e-08
 -2.167507e-08
 -1.909752e-08
 -1.601831e-08
 -1.247425e-08
 -8.544895e-09
 -4.342615e-09
 0.000000e+00
 0.000000e+00
 -4.781938e-09
 -1.021212e-08
 -1.665410e-08
 -2.404572e-08
 -3.196902e-08
 -3.989050e-08
 -4.744646e-08
 -5.462205e-08
 -6.173092e-08
 -6.922899e-08
 -7.750203e-08
 -8.675449e-08
 -9.701008e-08
 -1.081169e-07
 -1.195877e-07
 -1.300941e-07
 -1.366155e-07
 -1.341681e-07
 -1.185165e-07
 -9.208835e-08
 -6.536663e-08
 -4.820166e-08
 -4.219558e-08
 -4.315119e-08
 -4.657001e-08
 -4.987546e-08
 -5.210075e-08
 -5.310183e-08
 -5.304397e-08
 -5.216590e-08
 -5.069580e-08
 -4.883212e-08
 -4.674601e-08
 -4.458688e-08
 -4.248415e-08
 -4.054296e-08
 -3.883394e-08
 -3.737918e-08
 -3.613903e-08
 -3.500673e-08
 -3.381727e-08
 -3.237243e-08
 -3.047686e-08
 -2.797443e-08
 -2.477428e-08
 -2.086121e-08
 -1.629185e-08
 -1.118181e-08
 -5.689526e-09
 0.000000e+00
 0.000000e+00
 -4.587586e-09
 -1.044527e-08
 -1.825428e-08
 -2.782240e-08
 -3.823703e-08
 -4.836748e-08
 -5.746521e-08
 -6.554163e-08
 -7.329376e-08
 -8.164856e-08
 -9.129522e-08
 -1.025337e-07
 -1.154429e-07
 -1.301246e-07
 -1.467149e-07
 -1.647102e-07
 -1.807252e-07
 -1.846202e-07
 -1.614951e-07
 -1.113458e-07
 -6.197674e-08
 -3.840249e-08
 -3.784262e-08
 -4.632246e-08
 -5.500828e-08
 -6.108308e-08
 -6.441500e-08
 -6.559282e-08
 -6.523165e-08
 -6.381092e-08
 -6.168081e-08
 -5.910434e-08
 -5.629457e-08
 -5.343770e-08
 -5.070220e-08
 -4.823518e-08
 -4.614701e-08
 -4.448629e-08
 -4.321225e-08
 -4.217737e-08
 -4.113522e-08
 -3.978003e-08
 -3.780892e-08
 -3.498454e-08
 -3.117615e-08
 -2.637034e-08
 -2.065724e-08
 -1.420535e-08
 -7.235644e-09
 0.000000e+00
 0.000000e+00
 -3.015633e-09
 -8.568243e-09
 -1.796480e-08
 -3.071315e-08
 -4.485940e-08
 -5.801798e-08
 -6.863187e-08
 -7.682392e-08
 -8.420360e-08
 -9.270131e-08
 -1.034576e-07
 -1.166521e-07
 -1.321255e-07
 -1.501586e-07
 -1.720359e-07
 -2.000948e-07
 -2.354497e-07
 -2.645633e-07
 -2.380157e-07
 -1.290899e-07
 -2.641592e-08
 -4.031717e-09
 -2.586076e-08
 -5.034272e-08
 -6.644366e-08
 -7.511932e-08
 -7.887506e-08
 -7.959652e-08
 -7.845669e-08
 -7.615104e-08
 -7.310427e-08
 -6.960577e-08
 -6.588760e-08
 -6.216393e-08
 -5.864594e-08
 -5.553838e-08
 -5.301743e-08
 -5.118821e-08
 -5.002885e-08
 -4.934469e-08
 -4.876669e-08
 -4.781514e-08
 -4.601294e-08
 -4.299891e-08
 -3.859303e-08
 -3.279980e-08
 -2.577001e-08
 -1.775172e-08
 -9.049961e-09
 0.000000e+00
 0.000000e+00
 1.318939e-09
 -2.519836e-09
 -1.405978e-08
 -3.212678e-08
 -5.261826e-08
 -7.052574e-08
 -8.250110e-08
 -8.896967e-08
 -9.383132e-08
 -1.013110e-07
 -1.131229e-07
 -1.285722e-07
 -1.464253e-07
 -1.665637e-07
 -1.911890e-07
 -2.266912e-07
 -2.877178e-07
 -4.005689e-07
 -4.267095e-07
 -1.363477e-07
 1.168836e-07
 7.063643e-08
 -1.752760e-08
 -6.414805e-08
 -8.537622e-08
 -9.393339e-08
 -9.624620e-08
 -9.538366e-08
 -9.280457e-08
 -8.921133e-08
 -8.497096e-08
 -8.032455e-08
 -7.548610e-08
 -7.068394e-08
 -6.617510e-08
 -6.224356e-08
 -5.917476e-08
 -5.719021e-08
 -5.633915e-08
 -5.638585e-08
 -5.677215e-08
 -5.672175e-08
 -5.546091e-08
 -5.243706e-08
 -4.742188e-08
 -4.048170e-08
 -3.188040e-08
 -2.198630e-08
 -1.121453e-08
 0.000000e+00
 0.000000e+00
 1.129526e-08
 1.190788e-08
 -3.106746e-09
 -3.094943e-08
 -6.324223e-08
 -8.966805e-08
 -1.025597e-07
 -1.027641e-07
 -1.003162e-07
 -1.051354e-07
 -1.190785e-07
 -1.382926e-07
 -1.588103e-07
 -1.791160e-07
 -2.007480e-07
 -2.302542e-07
 -2.885678e-07
 -4.543337e-07
 -1.516048e-06
 -1.889465e-07
 7.316426e-07
 1.016784e-07
 -5.464821e-08
 -1.017736e-07
 -1.159280e-07
 -1.184766e-07
 -1.165477e-07
 -1.127721e-07
 -1.081161e-07
 -1.029007e-07
 -9.724065e-08
 -9.123842e-08
 -8.505347e-08
 -7.891570e-08
 -7.312838e-08
 -6.807673e-08
 -6.421953e-08
 -6.200906e-08
 -6.169356e-08
 -6.304726e-08
 -6.521484e-08
 -6.687941e-08
 -6.673005e-08
 -6.391753e-08
 -5.820829e-08
 -4.984099e-08
 -3.929046e-08
 -2.710149e-08
 -1.382309e-08
 0.000000e+00
 0.000000e+00
 3.303166e-08
 4.339102e-08
 2.162808e-08
 -2.498636e-08
 -8.009015e-08
 -1.239022e-07
 -1.372319e-07
 -1.191362e-07
 -9.779143e-08
 -9.881701e-08
 -1.198724e-07
 -1.471762e-07
 -1.718827e-07
 -1.910274e-07
 -2.042251e-07
 -2.115410e-07
 -2.117605e-07
 -1.962895e-07
 -2.212551e-07
 1.724389e-05
 -2.070451e-07
 -1.689379e-07
 -1.735137e-07
 -1.659693e-07
 -1.562796e-07
 -1.468844e-07
 -1.384567e-07
 -1.309467e-07
 -1.239586e-07
 -1.170359e-07
 -1.098635e-07
 -1.023469e-07
 -9.458554e-08
 -8.681095e-08
 -7.936024e-08
 -7.271806e-08
 -6.758635e-08
 -6.485105e-08
 -6.526361e-08
 -6.880781e-08
 -7.416198e-08
 -7.893812e-08
 -8.077423e-08
 -7.837564e-08
 -7.168945e-08
 -6.139201e-08
 -4.833813e-08
 -3.330521e-08
 -1.697655e-08
 0.000000e+00
 0.000000e+00
 7.994318e-08
 1.102074e-07
 7.258858e-08
 -1.015020e-08
 -1.077200e-07
 -1.916320e-07
 -2.100338e-07
 -1.380451e-07
 -6.648470e-08
 -7.086760e-08
 -1.157936e-07
 -1.596905e-07
 -1.908892e-07
 -2.089419e-07
 -2.134369e-07
 -1.991780e-07
 -1.463954e-07
 1.973155e-08
 6.623588e-07
 -2.438473e-07
 -1.555864e-06
 -4.793590e-07
 -3.002641e-07
 -2.315409e-07
 -1.961150e-07
 -1.742137e-07
 -1.593911e-07
 -1.485913e-07
 -1.397632e-07
 -1.314607e-07
 -1.228641e-07
 -1.137208e-07
 -1.041463e-07
 -9.440567e-08
 -8.482228e-08
 -7.588806e-08
 -6.854550e-08
 -6.441666e-08
 -6.545969e-08
 -7.255081e-08
 -8.369349e-08
 -9.414504e-08
 -9.928143e-08
 -9.724170e-08
 -8.880135e-08
 -7.567958e-08
 -5.934751e-08
 -4.079984e-08
 -2.077910e-08
 0.000000e+00
 0.000000e+00
 1.822112e-07
 2.536716e-07
 1.688999e-07
 1.735441e-08
 -1.423882e-07
 -3.258247e-07
 -4.030066e-07
 -1.521511e-07
 6.835121e-08
 -6.177808e-09
 -1.189467e-07
 -1.861926e-07
 -2.229021e-07
 -2.397188e-07
 -2.395398e-07
 -2.189107e-07
 -1.668985e-07
 -6.874513e-08
 -9.169961e-09
 -2.468445e-07
 -5.202860e-07
 -4.765673e-07
 -3.464681e-07
 -2.702812e-07
 -2.240378e-07
 -1.948775e-07
 -1.764274e-07
 -1.643575e-07
 -1.551504e-07
 -1.462791e-07
 -1.364731e-07
 -1.255472e-07
 -1.138766e-07
 -1.018658e-07
 -8.971007e-08
 -7.759467e-08
 -6.638257e-08
 -5.865165e-08
 -5.906898e-08
 -7.168313e-08
 -9.394504e-08
 -1.152293e-07
 -1.254502e-07
 -1.226411e-07
 -1.105222e-07
 -9.308655e-08
 -7.253205e-08
 -4.976801e-08
 -2.535082e-08
 0.000000e+00
 0.000000e+00
 4.027860e-07
 5.884128e-07
 3.191891e-07
 3.831390e-08
 -1.556711e-07
 -3.968495e-07
 -1.507563e-06
 -2.179799e-07
 6.704477e-07
 1.138067e-08
 -1.713957e-07
 -2.415187e-07
 -2.735408e-07
 -2.865258e-07
 -2.848706e-07
 -2.684021e-07
 -2.374380e-07
 -2.041646e-07
 -2.114220e-07
 -2.965076e-07
 -3.860535e-07
 -3.913547e-07
 -3.392940e-07
 -2.814817e-07
 -2.358369e-07
 -2.050772e-07
 -1.871834e-07
 -1.774272e-07
 -1.704265e-07
 -1.622241e-07
 -1.512949e-07
 -1.381144e-07
 -1.238996e-07
 -1.094551e-07
 -9.465736e-08
 -7.869217e-08
 -6.117681e-08
 -4.477994e-08
 -3.925847e-08
 -5.942043e-08
 -1.053100e-07
 -1.491207e-07
 -1.656573e-07
 -1.572591e-07
 -1.371885e-07
 -1.133940e-07
 -8.788227e-08
 -6.043024e-08
 -3.089945e-08
 0.000000e+00
 0.000000e+00
 3.339806e-07
 1.716964e-06
 3.127206e-07
 -3.759802e-08
 -1.460516e-07
 -1.794529e-07
 -2.381629e-07
 1.719682e-05
 -2.836760e-07
 -2.751791e-07
 -3.088954e-07
 -3.284433e-07
 -3.413399e-07
 -3.473154e-07
 -3.449520e-07
 -3.337880e-07
 -3.166215e-07
 -3.029704e-07
 -3.082996e-07
 -3.373127e-07
 -3.658650e-07
 -3.642927e-07
 -3.296455e-07
 -2.789380e-07
 -2.320818e-07
 -2.019285e-07
 -1.896912e-07
 -1.880125e-07
 -1.873552e-07
 -1.812535e-07
 -1.684863e-07
 -1.516271e-07
 -1.339766e-07
 -1.172608e-07
 -1.008052e-07
 -8.177594e-08
 -5.612651e-08
 -2.158924e-08
 8.684048e-09
 -1.490420e-08
 -1.194554e-07
 -2.166172e-07
 -2.323086e-07
 -2.021051e-07
 -1.665321e-07
 -1.351086e-07
 -1.052297e-07
 -7.333846e-08
 -3.793956e-08
 0.000000e+00
 0.000000e+00
 3.453688e-05
 -5.353199e-07
 -3.854114e-07
 -2.895709e-07
 -1.917150e-07
 -1.517672e-08
 6.175205e-07
 -3.092310e-07
 -1.647725e-06
 -6.018280e-07
 -4.561671e-07
 -4.212014e-07
 -4.159406e-07
 -4.165916e-07
 -4.143197e-07
 -4.063460e-07
 -3.938457e-07
 -3.813489e-07
 -3.749642e-07
 -3.772940e-07
 -3.819489e-07
 -3.737130e-07
 -3.362441e-07
 -2.712858e-07
 -2.094053e-07
 -1.793555e-07
 -1.813225e-07
 -1.981759e-07
 -2.107202e-07
 -2.076268e-07
 -1.898593e-07
 -1.656223e-07
 -1.426894e-07
 -1.244324e-07
 -1.092929e-07
 -9.157502e-08
 -6.159621e-08
 -2.930200e-09
 1.108571e-07
 1.403910e-07
 -1.451693e-07
 -3.929551e-07
 -3.408469e-07
 -2.459310e-07
 -1.902869e-07
 -1.553008e-07
 -1.249879e-07
 -9.019983e-08
 -4.780239e-08
 0.000000e+00
 0.000000e+00
 -9.098289e-07
 -4.034706e-06
 -1.111506e-06
 -5.248491e-07
 -2.882862e-07
 -1.360577e-07
 -7.221326e-08
 -3.251013e-07
 -6.233089e-07
 -6.121950e-07
 -5.222837e-07
 -4.906915e-07
 -4.865393e-07
 -4.896719e-07
 -4.900104e-07
 -4.840178e-07
 -4.714507e-07
 -4.530690e-07
 -4.312085e-07
 -4.133289e-07
 -4.102879e-07
 -4.154032e-07
 -3.769069e-07
 -2.600433e-07
 -1.485584e-07
 -1.220706e-07
 -1.578712e-07
 -2.140635e-07
 -2.521261e-07
 -2.499374e-07
 -2.174861e-07
 -1.774810e-07
 -1.458709e-07
 -1.278108e-07
 -1.197797e-07
 -1.126421e-07
 -9.356039e-08
 -3.914853e-08
 1.283065e-07
 1.194978e-06
 -1.260945e-07
 -1.041053e-06
 -4.064999e-07
 -2.463839e-07
 -1.947888e-07
 -1.719302e-07
 -1.502104e-07
 -1.156171e-07
 -6.363365e-08
 0.000000e+00
 0.000000e+00
 -1.799471e-05
 -1.024425e-06
 -8.598924e-07
 -4.947090e-07
 -3.236726e-07
 -2.610905e-07
 -2.762207e-07
 -3.793300e-07
 -4.926008e-07
 -5.319689e-07
 -5.298492e-07
 -5.350636e-07
 -5.515204e-07
 -5.666326e-07
 -5.725625e-07
 -5.683499e-07
 -5.550004e-07
 -5.292388e-07
 -4.845818e-07
 -4.325118e-07
 -4.198749e-07
 -5.000156e-07
 -5.263022e-07
 -2.411523e-07
 2.269876e-08
 -4.092294e-09
 -1.138736e-07
 -2.504784e-07
 -3.407471e-07
 -3.243686e-07
 -2.509911e-07
 -1.790294e-07
 -1.340450e-07
 -1.202285e-07
 -1.289428e-07
 -1.446042e-07
 -1.549319e-07
 -1.588235e-07
 -1.692694e-07
 -1.355074e-07
 -1.759191e-05
 -1.345222e-07
 -1.695062e-07
 -1.654311e-07
 -1.764343e-07
 -1.889721e-07
 -1.898071e-07
 -1.603657e-07
 -9.210734e-08
 0.000000e+00
 0.000000e+00
 -2.868448e-07
 5.248028e-07
 -3.889355e-07
 -2.514604e-07
 -2.659537e-07
 -3.209275e-07
 -3.678424e-07
 -4.204238e-07
 -4.658499e-07
 -4.924649e-07
 -5.194953e-07
 -5.663873e-07
 -6.191607e-07
 -6.540724e-07
 -6.656333e-07
 -6.609832e-07
 -6.496476e-07
 -6.271888e-07
 -5.531100e-07
 -4.137727e-07
 -3.293963e-07
 -4.661466e-07
 -1.572814e-06
 -2.875624e-07
 6.467363e-07
 1.119184e-07
 -1.684429e-08
 -3.361125e-07
 -5.635402e-07
 -4.527762e-07
 -2.764118e-07
 -1.504431e-07
 -8.897796e-08
 -8.873930e-08
 -1.317888e-07
 -1.840588e-07
 -2.246535e-07
 -2.762225e-07
 -4.282725e-07
 -1.054475e-06
 -1.347015e-07
 1.185594e-06
 1.110288e-07
 -7.325041e-08
 -1.560623e-07
 -2.161039e-07
 -2.612791e-07
 -2.491815e-07
 -1.453378e-07
 0.000000e+00
 0.000000e+00
 -3.965968e-07
 -1.579769e-06
 -4.661765e-07
 3.644323e-07
 -2.388036e-07
 -3.882500e-07
 -4.473060e-07
 -4.686647e-07
 -4.655999e-07
 -4.526777e-07
 -4.812800e-07
 -5.902706e-07
 -7.091350e-07
 -7.667864e-07
 -7.753774e-07
 -7.589152e-07
 -7.465402e-07
 -7.775982e-07
 -7.192750e-07
 -3.435784e-07
 -1.733642e-08
 -4.329823e-08
 -2.439896e-07
 1.709086e-05
 -3.648394e-07
 -1.730846e-07
 8.835224e-07
 -4.243826e-07
 -1.296836e-06
 -5.656865e-07
 -2.469214e-07
 -5.462517e-08
 1.927300e-08
 -9.858370e-09
 -1.276565e-07
 -2.434960e-07
 -2.914751e-07
 -3.193925e-07
 -3.842054e-07
 -4.150365e-07
 -1.567089e-07
 1.277142e-07
 8.526632e-08
 -5.293328e-08
 -1.507427e-07
 -2.477840e-07
 -3.887043e-07
 -4.532727e-07
 -2.319903e-07
 0.000000e+00
 0.000000e+00
 -2.961213e-07
 -6.391300e-07
 1.661825e-05
 -6.803143e-07
 -4.610289e-07
 -5.201683e-07
 -5.613535e-07
 -5.401588e-07
 -4.842941e-07
 -3.730055e-07
 -3.345135e-07
 -6.059131e-07
 -8.813809e-07
 -9.259328e-07
 -9.114829e-07
 -8.552892e-07
 -7.987788e-07
 -8.475842e-07
 -1.788074e-06
 -3.141775e-07
 8.239268e-07
 4.167527e-07
 6.218650e-07
 -5.959507e-07
 -1.909233e-06
 -8.129697e-07
 -6.195436e-07
 -1.802364e-05
 -5.288109e-07
 -4.611833e-07
 -1.140987e-07
 1.692626e-07
 2.223006e-07
 1.800235e-07
 -1.303039e-07
 -3.985674e-07
 -3.761424e-07
 -3.159152e-07
 -2.875087e-07
 -2.366540e-07
 -1.220745e-07
 -1.891645e-08
 -1.424160e-08
 -7.437353e-08
 -1.469892e-07
 -2.360515e-07
 -4.249395e-07
 -1.523648e-06
 -3.264672e-07
 0.000000e+00
 0.000000e+00
 -2.493670e-07
 -3.561434e-08
 -2.164103e-06
 -2.251836e-06
 -3.164714e-07
 -7.552282e-07
 -7.373427e-07
 -6.350236e-07
 -5.555841e-07
 -3.921232e-07
 6.967889e-07
 -5.348939e-07
 -1.427067e-06
 -1.063474e-06
 -1.114578e-06
 -9.557715e-07
 -7.694955e-07
 -6.076544e-07
 -4.946177e-07
 1.713663e-05
 -3.459271e-08
 1.192869e-06
 -8.380877e-08
 -1.275145e-06
 -1.006427e-06
 -1.039882e-06
 -1.638008e-06
 -7.224922e-07
 7.595350e-07
 -1.108512e-06
 -4.345194e-09
 7.862655e-07
 2.578777e-07
 1.218482e-06
 -8.483728e-08
 -1.013722e-06
 -4.127205e-07
 -2.715254e-07
 -2.116281e-07
 -1.506081e-07
 -7.962725e-08
 -3.593314e-08
 -4.911923e-08
 -9.510831e-08
 -1.357853e-07
 -1.561465e-07
 -1.423609e-07
 -1.451940e-07
 1.735625e-05
 0.000000e+00
 0.000000e+00
 -5.593711e-07
 -7.837824e-07
 -1.129513e-06
 1.601602e-05
 -1.484936e-06
 -1.332847e-06
 -9.699290e-07
 -6.675420e-07
 -6.823856e-07
 -7.556688e-07
 -7.247264e-07
 -1.805127e-05
 4.592691e-07
 -8.763103e-07
 -1.726999e-06
 -1.003124e-06
 -7.082220e-07
 -4.022050e-07
 3.642645e-07
 -4.157059e-07
 -1.631197e-06
 -4.676276e-07
 -1.778012e-05
 -4.005624e-07
 -5.884106e-07
 -7.350475e-07
 -9.106452e-07
 -1.684929e-06
 -4.269484e-08
 8.038193e-07
 1.745740e-05
 -3.496755e-07
 -4.660994e-07
 -2.191848e-07
 -1.745844e-05
 -5.639487e-08
 -1.661386e-07
 -1.734180e-07
 -1.459898e-07
 -8.404715e-08
 -8.763116e-09
 1.658818e-08
 -4.928457e-08
 -1.274124e-07
 -1.448891e-07
 -1.053357e-07
 7.202149e-08
 8.015184e-07
 1.417904e-07
 0.000000e+00
 0.000000e+00
 -1.430153e-06
 -1.298600e-06
 -5.729646e-07
 -1.484888e-06
 -2.888066e-06
 -2.787980e-06
 -1.222766e-06
 -2.116916e-07
 -8.390284e-07
 -1.137580e-06
 -1.834957e-06
 -9.828239e-07
 3.391375e-07
 -1.817137e-05
 -8.133916e-07
 -7.864064e-07
 -6.554199e-07
 -4.936307e-07
 -3.435970e-07
 -4.588828e-07
 -7.512269e-07
 -1.317933e-06
 -3.374058e-07
 9.554479e-07
 -1.640337e-07
 -3.510157e-07
 -3.326651e-07
 -2.035818e-07
 1.753022e-05
 7.127790e-07
 -2.848972e-07
 -1.902206e-06
 -2.130238e-06
 -1.326314e-06
 5.363420e-07
 1.248963e-06
 5.735500e-08
 -1.124409e-07
 -1.169884e-07
 -4.089515e-08
 1.123256e-07
 1.912167e-07
 -4.075895e-08
 -2.430570e-07
 -1.932285e-07
 -1.564226e-07
 -9.359256e-08
 5.727590e-08
 7.316021e-08
 0.000000e+00
 0.000000e+00
 -3.547636e-06
 -2.030178e-06
 -1.467169e-06
 -1.474005e-06
 -1.606731e-06
 -1.512345e-06
 1.612610e-05
 -1.235239e-06
 -1.182648e-06
 -1.264895e-06
 -1.383653e-06
 -1.378832e-06
 -1.803668e-06
 -9.164532e-07
 3.786779e-07
 -5.808768e-07
 -6.270024e-07
 -6.611464e-07
 -6.521806e-07
 -4.311648e-07
 -3.250978e-07
 -4.442669e-07
 -2.867952e-07
 -5.139768e-08
 -8.878457e-08
 -1.359488e-07
 3.830676e-08
 7.770329e-07
 1.809956e-08
 -1.229956e-06
 -4.539614e-07
 -6.781640e-07
 -8.095595e-07
 1.665898e-05
 -5.091275e-07
 -1.435355e-07
 -1.287654e-07
 -1.793564e-07
 -1.582938e-07
 -7.246738e-08
 1.398530e-07
 1.260792e-06
 1.340907e-08
 -7.809501e-07
 -1.109755e-07
 -2.294958e-07
 -4.579986e-07
 -3.980430e-07
 -1.424674e-07
 0.000000e+00
 0.000000e+00
 -3.826603e-06
 -2.173054e-06
 -1.661327e-06
 -1.432943e-06
 -1.224155e-06
 -5.345313e-07
 -1.365991e-06
 -2.598494e-06
 -1.476705e-06
 -1.275071e-06
 -1.231392e-06
 -1.437279e-06
 -1.586408e-06
 -1.311653e-06
 -9.696749e-07
 -7.020914e-07
 -5.650934e-07
 -7.077733e-07
 -1.736471e-06
 -3.604762e-07
 5.612153e-07
 -1.028923e-07
 -2.270499e-07
 -1.967124e-07
 -1.654207e-07
 -1.162077e-07
 1.394902e-08
 1.474685e-07
 -5.350885e-09
 -2.491199e-07
 -2.836135e-07
 -2.341571e-07
 2.350046e-07
 -7.375228e-07
 -1.931349e-06
 -6.827697e-07
 -4.129252e-07
 -3.152123e-07
 -2.557200e-07
 -1.991980e-07
 -1.548290e-07
 -7.068086e-08
 -1.746276e-05
 1.520771e-07
 1.165263e-06
 -1.517939e-07
 -1.126262e-06
 -1.519457e-06
 -2.302423e-07
 0.000000e+00
 0.000000e+00
 -1.423342e-06
 -1.759081e-06
 -1.580852e-06
 -1.347204e-06
 -1.177336e-06
 -1.143387e-06
 -1.382475e-06
 -1.537909e-06
 -1.400812e-06
 -1.334620e-06
 -3.038518e-07
 -1.383416e-06
 -2.100881e-06
 -1.435534e-06