<VTKFile type="UnstructuredGrid"  version="0.1"   >
<UnstructuredGrid>  
<Piece  NumberOfPoints="     2601"  NumberOfCells="     5000">  
<Points>  
<DataArray  type="Float64"  NumberOfComponents="3"  format="ascii">  
 0.000000 0.000000 0.000000 
 0.020000 0.000000 0.000000 
 0.040000 0.000000 0.000000 
 0.060000 0.000000 0.000000 
 0.080000 0.000000 0.000000 
 0.100000 0.000000 0.000000 
 0.120000 0.000000 0.000000 
 0.140000 0.000000 0.000000 
 0.160000 0.000000 0.000000 
 0.180000 0.000000 0.000000 
 0.200000 0.000000 0.000000 
 0.220000 0.000000 0.000000 
 0.240000 0.000000 0.000000 
 0.260000 0.000000 0.000000 
 0.280000 0.000000 0.000000 
 0.300000 0.000000 0.000000 
 0.320000 0.000000 0.000000 
 0.340000 0.000000 0.000000 
 0.360000 0.000000 0.000000 
 0.380000 0.000000 0.000000 
 0.400000 0.000000 0.000000 
 0.420000 0.000000 0.000000 
 0.440000 0.000000 0.000000 
 0.460000 0.000000 0.000000 
 0.480000 0.000000 0.000000 
 0.500000 0.000000 0.000000 
 0.520000 0.000000 0.000000 
 0.540000 0.000000 0.000000 
 0.560000 0.000000 0.000000 
 0.580000 0.000000 0.000000 
 0.600000 0.000000 0.000000 
 0.620000 0.000000 0.000000 
 0.640000 0.000000 0.000000 
 0.660000 0.000000 0.000000 
 0.680000 0.000000 0.000000 
 0.700000 0.000000 0.000000 
 0.720000 0.000000 0.000000 
 0.740000 0.000000 0.000000 
 0.760000 0.000000 0.000000 
 0.780000 0.000000 0.000000 
 0.800000 0.000000 0.000000 
 0.820000 0.000000 0.000000 
 0.840000 0.000000 0.000000 
 0.860000 0.000000 0.000000 
 0.880000 0.000000 0.000000 
 0.900000 0.000000 0.000000 
 0.920000 0.000000 0.000000 
 0.940000 0.000000 0.000000 
 0.960000 0.000000 0.000000 
 0.980000 0.000000 0.000000 
 1.000000 0.000000 0.000000 
 0.000000 0.020000 0.000000 
 0.020000 0.020000 0.000000 
 0.040000 0.020000 0.000000 
 0.060000 0.020000 0.000000 
 0.080000 0.020000 0.000000 
 0.100000 0.020000 0.000000 
 0.120000 0.020000 0.000000 
 0.140000 0.020000 0.000000 
 0.160000 0.020000 0.000000 
 0.180000 0.020000 0.000000 
 0.200000 0.020000 0.000000 
 0.220000 0.020000 0.000000 
 0.240000 0.020000 0.000000 
 0.260000 0.020000 0.000000 
 0.280000 0.020000 0.000000 
 0.300000 0.020000 0.000000 
 0.320000 0.020000 0.000000 
 0.340000 0.020000 0.000000 
 0.360000 0.020000 0.000000 
 0.380000 0.020000 0.000000 
 0.400000 0.020000 0.000000 
 0.420000 0.020000 0.000000 
 0.440000 0.020000 0.000000 
 0.460000 0.020000 0.000000 
 0.480000 0.020000 0.000000 
 0.500000 0.020000 0.000000 
 0.520000 0.020000 0.000000 
 0.540000 0.020000 0.000000 
 0.560000 0.020000 0.000000 
 0.580000 0.020000 0.000000 
 0.600000 0.020000 0.000000 
 0.620000 0.020000 0.000000 
 0.640000 0.020000 0.000000 
 0.660000 0.020000 0.000000 
 0.680000 0.020000 0.000000 
 0.700000 0.020000 0.000000 
 0.720000 0.020000 0.000000 
 0.740000 0.020000 0.000000 
 0.760000 0.020000 0.000000 
 0.780000 0.020000 0.000000 
 0.800000 0.020000 0.000000 
 0.820000 0.020000 0.000000 
 0.840000 0.020000 0.000000 
 0.860000 0.020000 0.000000 
 0.880000 0.020000 0.000000 
 0.900000 0.020000 0.000000 
 0.920000 0.020000 0.000000 
 0.940000 0.020000 0.000000 
 0.960000 0.020000 0.000000 
 0.980000 0.020000 0.000000 
 1.000000 0.020000 0.000000 
 0.000000 0.040000 0.000000 
 0.020000 0.040000 0.000000 
 0.040000 0.040000 0.000000 
 0.060000 0.040000 0.000000 
 0.080000 0.040000 0.000000 
 0.100000 0.040000 0.000000 
 0.120000 0.040000 0.000000 
 0.140000 0.040000 0.000000 
 0.160000 0.040000 0.000000 
 0.180000 0.040000 0.000000 
 0.200000 0.040000 0.000000 
 0.220000 0.040000 0.000000 
 0.240000 0.040000 0.000000 
 0.260000 0.040000 0.000000 
 0.280000 0.040000 0.000000 
 0.300000 0.040000 0.000000 
 0.320000 0.040000 0.000000 
 0.340000 0.040000 0.000000 
 0.360000 0.040000 0.000000 
 0.380000 0.040000 0.000000 
 0.400000 0.040000 0.000000 
 0.420000 0.040000 0.000000 
 0.440000 0.040000 0.000000 
 0.460000 0.040000 0.000000 
 0.480000 0.040000 0.000000 
 0.500000 0.040000 0.000000 
 0.520000 0.040000 0.000000 
 0.540000 0.040000 0.000000 
 0.560000 0.040000 0.000000 
 0.580000 0.040000 0.000000 
 0.600000 0.040000 0.000000 
 0.620000 0.040000 0.000000 
 0.640000 0.040000 0.000000 
 0.660000 0.040000 0.000000 
 0.680000 0.040000 0.000000 
 0.700000 0.040000 0.000000 
 0.720000 0.040000 0.000000 
 0.740000 0.040000 0.000000 
 0.760000 0.040000 0.000000 
 0.780000 0.040000 0.000000 
 0.800000 0.040000 0.000000 
 0.820000 0.040000 0.000000 
 0.840000 0.040000 0.000000 
 0.860000 0.040000 0.000000 
 0.880000 0.040000 0.000000 
 0.900000 0.040000 0.000000 
 0.920000 0.040000 0.000000 
 0.940000 0.040000 0.000000 
 0.960000 0.040000 0.000000 
 0.980000 0.040000 0.000000 
 1.000000 0.040000 0.000000 
 0.000000 0.060000 0.000000 
 0.020000 0.060000 0.000000 
 0.040000 0.060000 0.000000 
 0.060000 0.060000 0.000000 
 0.080000 0.060000 0.000000 
 0.100000 0.060000 0.000000 
 0.120000 0.060000 0.000000 
 0.140000 0.060000 0.000000 
 0.160000 0.060000 0.000000 
 0.180000 0.060000 0.000000 
 0.200000 0.060000 0.000000 
 0.220000 0.060000 0.000000 
 0.240000 0.060000 0.000000 
 0.260000 0.060000 0.000000 
 0.280000 0.060000 0.000000 
 0.300000 0.060000 0.000000 
 0.320000 0.060000 0.000000 
 0.340000 0.060000 0.000000 
 0.360000 0.060000 0.000000 
 0.380000 0.060000 0.000000 
 0.400000 0.060000 0.000000 
 0.420000 0.060000 0.000000 
 0.440000 0.060000 0.000000 
 0.460000 0.060000 0.000000 
 0.480000 0.060000 0.000000 
 0.500000 0.060000 0.000000 
 0.520000 0.060000 0.000000 
 0.540000 0.060000 0.000000 
 0.560000 0.060000 0.000000 
 0.580000 0.060000 0.000000 
 0.600000 0.060000 0.000000 
 0.620000 0.060000 0.000000 
 0.640000 0.060000 0.000000 
 0.660000 0.060000 0.000000 
 0.680000 0.060000 0.000000 
 0.700000 0.060000 0.000000 
 0.720000 0.060000 0.000000 
 0.740000 0.060000 0.000000 
 0.760000 0.060000 0.000000 
 0.780000 0.060000 0.000000 
 0.800000 0.060000 0.000000 
 0.820000 0.060000 0.000000 
 0.840000 0.060000 0.000000 
 0.860000 0.060000 0.000000 
 0.880000 0.060000 0.000000 
 0.900000 0.060000 0.000000 
 0.920000 0.060000 0.000000 
 0.940000 0.060000 0.000000 
 0.960000 0.060000 0.000000 
 0.980000 0.060000 0.000000 
 1.000000 0.060000 0.000000 
 0.000000 0.080000 0.000000 
 0.020000 0.080000 0.000000 
 0.040000 0.080000 0.000000 
 0.060000 0.080000 0.000000 
 0.080000 0.080000 0.000000 
 0.100000 0.080000 0.000000 
 0.120000 0.080000 0.000000 
 0.140000 0.080000 0.000000 
 0.160000 0.080000 0.000000 
 0.180000 0.080000 0.000000 
 0.200000 0.080000 0.000000 
 0.220000 0.080000 0.000000 
 0.240000 0.080000 0.000000 
 0.260000 0.080000 0.000000 
 0.280000 0.080000 0.000000 
 0.300000 0.080000 0.000000 
 0.320000 0.080000 0.000000 
 0.340000 0.080000 0.000000 
 0.360000 0.080000 0.000000 
 0.380000 0.080000 0.000000 
 0.400000 0.080000 0.000000 
 0.420000 0.080000 0.000000 
 0.440000 0.080000 0.000000 
 0.460000 0.080000 0.000000 
 0.480000 0.080000 0.000000 
 0.500000 0.080000 0.000000 
 0.520000 0.080000 0.000000 
 0.540000 0.080000 0.000000 
 0.560000 0.080000 0.000000 
 0.580000 0.080000 0.000000 
 0.600000 0.080000 0.000000 
 0.620000 0.080000 0.000000 
 0.640000 0.080000 0.000000 
 0.660000 0.080000 0.000000 
 0.680000 0.080000 0.000000 
 0.700000 0.080000 0.000000 
 0.720000 0.080000 0.000000 
 0.740000 0.080000 0.000000 
 0.760000 0.080000 0.000000 
 0.780000 0.080000 0.000000 
 0.800000 0.080000 0.000000 
 0.820000 0.080000 0.000000 
 0.840000 0.080000 0.000000 
 0.860000 0.080000 0.000000 
 0.880000 0.080000 0.000000 
 0.900000 0.080000 0.000000 
 0.920000 0.080000 0.000000 
 0.940000 0.080000 0.000000 
 0.960000 0.080000 0.000000 
 0.980000 0.080000 0.000000 
 1.000000 0.080000 0.000000 
 0.000000 0.100000 0.000000 
 0.020000 0.100000 0.000000 
 0.040000 0.100000 0.000000 
 0.060000 0.100000 0.000000 
 0.080000 0.100000 0.000000 
 0.100000 0.100000 0.000000 
 0.120000 0.100000 0.000000 
 0.140000 0.100000 0.000000 
 0.160000 0.100000 0.000000 
 0.180000 0.100000 0.000000 
 0.200000 0.100000 0.000000 
 0.220000 0.100000 0.000000 
 0.240000 0.100000 0.000000 
 0.260000 0.100000 0.000000 
 0.280000 0.100000 0.000000 
 0.300000 0.100000 0.000000 
 0.320000 0.100000 0.000000 
 0.340000 0.100000 0.000000 
 0.360000 0.100000 0.000000 
 0.380000 0.100000 0.000000 
 0.400000 0.100000 0.000000 
 0.420000 0.100000 0.000000 
 0.440000 0.100000 0.000000 
 0.460000 0.100000 0.000000 
 0.480000 0.100000 0.000000 
 0.500000 0.100000 0.000000 
 0.520000 0.100000 0.000000 
 0.540000 0.100000 0.000000 
 0.560000 0.100000 0.000000 
 0.580000 0.100000 0.000000 
 0.600000 0.100000 0.000000 
 0.620000 0.100000 0.000000 
 0.640000 0.100000 0.000000 
 0.660000 0.100000 0.000000 
 0.680000 0.100000 0.000000 
 0.700000 0.100000 0.000000 
 0.720000 0.100000 0.000000 
 0.740000 0.100000 0.000000 
 0.760000 0.100000 0.000000 
 0.780000 0.100000 0.000000 
 0.800000 0.100000 0.000000 
 0.820000 0.100000 0.000000 
 0.840000 0.100000 0.000000 
 0.860000 0.100000 0.000000 
 0.880000 0.100000 0.000000 
 0.900000 0.100000 0.000000 
 0.920000 0.100000 0.000000 
 0.940000 0.100000 0.000000 
 0.960000 0.100000 0.000000 
 0.980000 0.100000 0.000000 
 1.000000 0.100000 0.000000 
 0.000000 0.120000 0.000000 
 0.020000 0.120000 0.000000 
 0.040000 0.120000 0.000000 
 0.060000 0.120000 0.000000 
 0.080000 0.120000 0.000000 
 0.100000 0.120000 0.000000 
 0.120000 0.120000 0.000000 
 0.140000 0.120000 0.000000 
 0.160000 0.120000 0.000000 
 0.180000 0.120000 0.000000 
 0.200000 0.120000 0.000000 
 0.220000 0.120000 0.000000 
 0.240000 0.120000 0.000000 
 0.260000 0.120000 0.000000 
 0.280000 0.120000 0.000000 
 0.300000 0.120000 0.000000 
 0.320000 0.120000 0.000000 
 0.340000 0.120000 0.000000 
 0.360000 0.120000 0.000000 
 0.380000 0.120000 0.000000 
 0.400000 0.120000 0.000000 
 0.420000 0.120000 0.000000 
 0.440000 0.120000 0.000000 
 0.460000 0.120000 0.000000 
 0.480000 0.120000 0.000000 
 0.500000 0.120000 0.000000 
 0.520000 0.120000 0.000000 
 0.540000 0.120000 0.000000 
 0.560000 0.120000 0.000000 
 0.580000 0.120000 0.000000 
 0.600000 0.120000 0.000000 
[...]
<PointData  Scalars="U"> 
<DataArray  type="Float64"  Name="U"  format="ascii"> 
 0.000000e+00
 0.000000e+00
 0.000000e+00
 0.000000e+00
 0.000000e+00
 0.000000e+00
 0.000000e+00
 0.000000e+00
 0.000000e+00
 0.000000e+00
 0.000000e+00
 0.000000e+00
 0.000000e+00
 0.000000e+00
 0.000000e+00
 0.000000e+00
 0.000000e+00
 0.000000e+00
 0.000000e+00
 0.000000e+00
 0.000000e+00
 0.000000e+00
 0.000000e+00
 0.000000e+00
 0.000000e+00
 0.000000e+00
 0.000000e+00
 0.000000e+00
 0.000000e+00
 0.000000e+00
 0.000000e+00
 0.000000e+00
 0.000000e+00
 0.000000e+00
 0.000000e+00
 0.000000e+00
 0.000000e+00
 0.000000e+00
 0.000000e+00
 0.000000e+00
 0.000000e+00
 0.000000e+00
 0.000000e+00
 0.000000e+00
 0.000000e+00
 0.000000e+00
 0.000000e+00
 0.000000e+00
 0.000000e+00
 0.000000e+00
 0.000000e+00
 0.000000e+00
 5.190466e-11
 1.040111e-10
 1.564885e-10
 2.094429e-10
 2.628932e-10
 3.167529e-10
 3.708217e-10
 4.247863e-10
 4.782297e-10
 5.306501e-10
 5.814850e-10
 6.301400e-10
 6.760196e-10
 7.185563e-10
 7.572371e-10
 7.916245e-10
 8.213716e-10
 8.462304e-10
 8.660535e-10
 8.807908e-10
 8.904806e-10
 8.952386e-10
 8.952443e-10
 8.907269e-10
 8.819517e-10
 8.692074e-10
 8.527951e-10
 8.330192e-10
 8.101802e-10
 7.845693e-10
 7.564644e-10
 7.261278e-10
 6.938047e-10
 6.597226e-10
 6.240916e-10
 5.871043e-10
 5.489368e-10
 5.097491e-10
 4.696860e-10
 4.288778e-10
 3.874406e-10
 3.454775e-10
 3.030781e-10
 2.603183e-10
 2.172576e-10
 1.739280e-10
 1.302914e-10
 8.604764e-11
 3.958681e-11
 0.000000e+00
 0.000000e+00
 1.036020e-10
 2.076408e-10
 3.124850e-10
 4.183723e-10
 5.253578e-10
 6.332776e-10
 7.417303e-10
 8.500792e-10
 9.574722e-10
 1.062880e-09
 1.165150e-09
 1.263060e-09
 1.355391e-09
 1.440981e-09
 1.518783e-09
 1.587906e-09
 1.647649e-09
 1.697513e-09
 1.737208e-09
 1.766642e-09
 1.785904e-09
 1.795238e-09
 1.795018e-09
 1.785716e-09
 1.767875e-09
 1.742083e-09
 1.708953e-09
 1.669100e-09
 1.623130e-09
 1.571630e-09
 1.515158e-09
 1.454239e-09
 1.389365e-09
 1.320991e-09
 1.249537e-09
 1.175386e-09
 1.098891e-09
 1.020371e-09
 9.401149e-10
 8.583822e-10
 7.754051e-10
 6.913891e-10
 6.065139e-10
 5.209336e-10
 4.347753e-10
 3.481330e-10
 2.610565e-10
 1.735656e-10
 8.612110e-11
 0.000000e+00
 0.000000e+00
 1.548509e-10
 3.104429e-10
 4.674076e-10
 6.261665e-10
 7.868481e-10
 9.492293e-10
 1.112707e-09
 1.276298e-09
 1.438678e-09
 1.598239e-09
 1.753173e-09
 1.901570e-09
 2.041523e-09
 2.171221e-09
 2.289039e-09
 2.393602e-09
 2.483839e-09
 2.558997e-09
 2.618653e-09
 2.662692e-09
 2.691275e-09
 2.704808e-09
 2.703885e-09
 2.689250e-09
 2.661752e-09
 2.622299e-09
 2.571832e-09
 2.511293e-09
 2.441606e-09
 2.363657e-09
 2.278291e-09
 2.186300e-09
 2.088420e-09
 1.985335e-09
 1.877672e-09
 1.766007e-09
 1.650866e-09
 1.532725e-09
 1.412016e-09
 1.289127e-09
 1.164404e-09
 1.038156e-09
 9.106502e-10
 7.821217e-10
 6.527695e-10
 5.227624e-10
 3.922522e-10
 2.614239e-10
 1.305852e-10
 0.000000e+00
 0.000000e+00
 2.053401e-10
 4.118368e-10
 6.204865e-10
 8.319785e-10
 1.046574e-09
 1.264021e-09
 1.483510e-09
 1.703681e-09
 1.922671e-09
 2.138207e-09
 2.347732e-09
 2.548542e-09
 2.737942e-09
 2.913385e-09
 3.072599e-09
 3.213681e-09
 3.335162e-09
 3.436037e-09
 3.515764e-09
 3.574235e-09
 3.611731e-09
 3.628857e-09
 3.626480e-09
 3.605660e-09
 3.567587e-09
 3.513528e-09
 3.444780e-09
 3.362630e-09
 3.268335e-09
 3.163094e-09
 3.048042e-09
 2.924239e-09
 2.792671e-09
 2.654247e-09
 2.509801e-09
 2.360097e-09
 2.205832e-09
 2.047639e-09
 1.886090e-09
 1.721698e-09
 1.554923e-09
 1.386173e-09
 1.215804e-09
 1.044128e-09
 8.714147e-10
 6.978980e-10
 5.237917e-10
 3.493086e-10
 1.746625e-10
 0.000000e+00
 0.000000e+00
 2.546458e-10
 5.110259e-10
 7.706505e-10
 1.034600e-09
 1.303355e-09
 1.576677e-09
 1.853548e-09
 2.132175e-09
 2.410068e-09
 2.684164e-09
 2.951007e-09
 3.206949e-09
 3.448363e-09
 3.671840e-09
 3.874364e-09
 4.053438e-09
 4.207168e-09
 4.334297e-09
 4.434195e-09
 4.506810e-09
 4.552600e-09
 4.572442e-09
 4.567541e-09
 4.539335e-09
 4.489414e-09
 4.419446e-09
 4.331122e-09
 4.226104e-09
 4.105998e-09
 3.972329e-09
 3.826530e-09
 3.669932e-09
 3.503767e-09
 3.329169e-09
 3.147176e-09
 2.958737e-09
 2.764717e-09
 2.565900e-09
 2.362996e-09
 2.156643e-09
 1.947410e-09
 1.735801e-09
 1.522258e-09
 1.307167e-09
 1.090859e-09
 8.736233e-10
 6.557107e-10
 4.373464e-10
 2.187260e-10
 0.000000e+00
 0.000000e+00
 3.021794e-10
 6.068979e-10
 9.163881e-10
 1.232294e-09
 1.555438e-09
 1.885655e-09
 2.221710e-09
 2.561307e-09
 2.901195e-09
 3.237341e-09
 3.565186e-09
 3.879922e-09
 4.176786e-09
 4.451337e-09
 4.699681e-09
 4.918646e-09
 5.105881e-09
 5.259887e-09
 5.379993e-09
 5.466279e-09
 5.519470e-09
 5.540810e-09
 5.531932e-09
 5.494738e-09
 5.431289e-09
 5.343717e-09
 5.234147e-09
 5.104652e-09
 4.957208e-09
 4.793678e-09
 4.615799e-09
 4.425174e-09
 4.223280e-09
 4.011471e-09
 3.790983e-09
 3.562945e-09
 3.328385e-09
 3.088236e-09
 2.843341e-09
 2.594458e-09
 2.342262e-09
 2.087352e-09
 1.830252e-09
 1.571414e-09
 1.311227e-09
 1.050021e-09
 7.880771e-10
 5.256325e-10
 2.628858e-10
 0.000000e+00
 0.000000e+00
 3.471220e-10
 6.978988e-10
 1.055571e-09
 1.422583e-09
 1.800268e-09
 2.188616e-09
 2.586166e-09
 2.990019e-09
 3.395973e-09
 3.798779e-09
 4.192483e-09
 4.570821e-09
 4.927617e-09
 5.257162e-09
 5.554516e-09
 5.815730e-09
 6.037961e-09
 6.219502e-09
 6.359718e-09
 6.458930e-09
 6.518257e-09
 6.539439e-09
 6.524664e-09
 6.476405e-09
 6.397288e-09
 6.289975e-09
 6.157083e-09
 6.001128e-09
 5.824482e-09
 5.629356e-09
 5.417792e-09
 5.191665e-09
 4.952690e-09
 4.702433e-09
 4.442322e-09
 4.173659e-09
 3.897628e-09
 3.615305e-09
 3.327661e-09
 3.035571e-09
 2.739816e-09
 2.441083e-09
 2.139972e-09
 1.837000e-09
 1.532604e-09
 1.227150e-09
 9.209378e-10
 6.142145e-10
 3.071801e-10
 0.000000e+00
 0.000000e+00
 3.883399e-10
 7.818699e-10
 1.185225e-09
 1.601974e-09
 2.034187e-09
 2.482130e-09
 2.944101e-09
 3.416453e-09
 3.893779e-09
 4.369265e-09
 4.835164e-09
 5.283340e-09
 5.705831e-09
 6.095345e-09
 6.445679e-09
 6.751986e-09
 7.010914e-09
 7.220603e-09
 7.380580e-09
 7.491570e-09
 7.555263e-09
 7.574074e-09
 7.550903e-09
 7.488938e-09
 7.391474e-09
 7.261792e-09
 7.103059e-09
 6.918269e-09
 6.710208e-09
 6.481444e-09
 6.234321e-09
 5.970979e-09
 5.693359e-09
 5.403228e-09
 5.102195e-09
 4.791724e-09
 4.473147e-09
 4.147677e-09
 3.816411e-09
 3.480336e-09
 3.140333e-09
 2.797176e-09
 2.451540e-09
 2.103999e-09
 1.755030e-09
 1.405027e-09
 1.054302e-09
 7.031016e-10
 3.516168e-10
 0.000000e+00
 0.000000e+00
 4.242743e-10
 8.558354e-10
 1.301233e-09
 1.765595e-09
 2.252046e-09
 2.761285e-09
 3.291357e-09
 3.837675e-09
 4.393269e-09
 4.949275e-09
 5.495596e-09
 6.021662e-09
 6.517203e-09
 6.972940e-09
 7.381122e-09
 7.735874e-09
 8.033337e-09
 8.271616e-09
 8.450592e-09
 8.571627e-09
 8.637233e-09
 8.650735e-09
 8.615956e-09
 8.536964e-09
 8.417860e-09
 8.262632e-09
 8.075057e-09
 7.858642e-09
 7.616601e-09
 7.351854e-09
 7.067039e-09
 6.764541e-09
 6.446511e-09
 6.114902e-09
 5.771484e-09
 5.417873e-09
 5.055540e-09
 4.685827e-09
 4.309952e-09
 3.929011e-09
 3.543985e-09
 3.155733e-09
 2.764999e-09
 2.372409e-09
 1.978477e-09
 1.583614e-09
 1.188133e-09
 7.922667e-10
 3.961820e-10
 0.000000e+00
 0.000000e+00
 4.527975e-10
 9.157243e-10
 1.397939e-09
 1.906717e-09
 2.446670e-09
 3.019158e-09
 3.621965e-09
 4.249300e-09
 4.892137e-09
 5.538890e-09
 6.176334e-09
 6.790678e-09
 7.368642e-09
 7.898407e-09
 8.370335e-09
 8.777384e-09
 9.115242e-09
 9.382182e-09
 9.578735e-09
 9.707246e-09
 9.771390e-09
 9.775714e-09
 9.725227e-09
 9.625082e-09
 9.480332e-09
 9.295773e-09
 9.075845e-09
 8.824592e-09
 8.545654e-09
 8.242288e-09
 7.917402e-09
 7.573599e-09
 7.213215e-09
 6.838358e-09
 6.450944e-09
 6.052722e-09
 5.645292e-09
 5.230119e-09
 4.808537e-09
 4.381753e-09
 3.950843e-09
 3.516754e-09
 3.080295e-09
 2.642143e-09
 2.202840e-09
 1.762805e-09
 1.322338e-09
 8.816424e-10
 4.408406e-10
 0.000000e+00
 0.000000e+00
 4.710278e-10
 9.560088e-10
 1.467630e-09
 2.016113e-09
 2.608155e-09
 3.246107e-09
 3.927498e-09
 4.644987e-09
 5.386813e-09
 6.137721e-09
 6.880262e-09
 7.596325e-09
 8.268650e-09
 8.882156e-09
 9.424886e-09
 9.888522e-09
 1.026845e-08
 1.056344e-08
 1.077514e-08
 1.090737e-08
 1.096544e-08
 1.095553e-08
 1.088414e-08
 1.075776e-08
 1.058255e-08
 1.036422e-08
 1.010789e-08
 9.818163e-09
 9.499076e-09
 9.154189e-09
 8.786639e-09
 8.399202e-09
 7.994358e-09
 7.574342e-09
 7.141187e-09
 6.696756e-09
 6.242767e-09
 5.780799e-09
 5.312304e-09
 4.838598e-09
 4.360859e-09
 3.880121e-09
 3.397262e-09
 2.913006e-09
 2.427917e-09
 1.942410e-09
 1.456759e-09
 9.711148e-10
 4.855331e-10
 0.000000e+00
 0.000000e+00
 4.750924e-10
 9.692379e-10
 1.499866e-09
 2.081218e-09
 2.722913e-09
 3.428793e-09
 4.196182e-09
 5.015743e-09
 5.872038e-09
 6.744805e-09
 7.610818e-09
 8.446081e-09
 9.228012e-09
 9.937297e-09
 1.055916e-08
 1.108395e-08
 1.150706e-08
 1.182835e-08
 1.205127e-08
 1.218181e-08
 1.222754e-08
 1.219679e-08
 1.209799e-08
 1.193918e-08
 1.172781e-08
 1.147055e-08
 1.117325e-08
 1.084101e-08
 1.047823e-08
 1.008870e-08
 9.675713e-09
 9.242172e-09
 8.790641e-09
 8.323438e-09
 7.842681e-09
 7.350328e-09
 6.848198e-09
 6.337986e-09
 5.821258e-09
 5.299450e-09
 4.773849e-09
 4.245581e-09
 3.715600e-09
 3.184676e-09
 2.653389e-09
 2.122140e-09
 1.591156e-09
 1.060514e-09
 5.301711e-10
 0.000000e+00
 0.000000e+00
 4.598319e-10
 9.454485e-10
 1.480603e-09
 2.085003e-09
 2.772384e-09
 3.548840e-09
 4.411657e-09
 5.348943e-09
 6.340287e-09
 7.358515e-09
 8.372370e-09
 9.349730e-09
 1.026080e-08
 1.108073e-08
 1.179137e-08
 1.238181e-08
 1.284808e-08
 1.319206e-08
 1.342003e-08
 1.354116e-08
 1.356613e-08
 1.350606e-08
 1.337172e-08
 1.317303e-08
 1.291883e-08
 1.261679e-08
 1.227344e-08
 1.189431e-08
 1.148404e-08
 1.104658e-08
 1.058529e-08
 1.010309e-08
 9.602563e-09
 9.086061e-09
 8.555749e-09
 8.013654e-09
 7.461690e-09
 6.901664e-09
 6.335270e-09
 5.764070e-09
 5.189476e-09
 4.612725e-09
 4.034851e-09
 3.456676e-09
 2.878795e-09
 2.301579e-09
 1.725189e-09
 1.149599e-09
 5.746302e-10
 0.000000e+00
 0.000000e+00
 4.184480e-10
 8.714448e-10
 1.391092e-09
 2.004519e-09
 2.731289e-09
 3.580967e-09
 4.551210e-09
 5.626930e-09
 6.780958e-09
 7.976453e-09
 9.170822e-09
 1.032053e-08
 1.138585e-08
 1.233471e-08
 1.314494e-08
 1.380482e-08
 1.431213e-08
 1.467226e-08
 1.489588e-08
 1.499673e-08
 1.498969e-08
 1.488945e-08
 1.470961e-08
 1.446220e-08
 1.415751e-08
 1.380416e-08
 1.340926e-08
 1.297861e-08
 1.251696e-08
 1.202823e-08
 1.151573e-08
 1.098229e-08
 1.043043e-08
 9.862473e-09
 9.280582e-09
 8.686832e-09
 8.083226e-09
 7.471690e-09
 6.854061e-09
 6.232053e-09
 5.607229e-09
 4.980954e-09
 4.354365e-09
 3.728345e-09
 3.103500e-09
 2.480162e-09
 1.858399e-09
 1.238044e-09
 6.187416e-10
 0.000000e+00
 0.000000e+00
 3.421104e-10
 7.299635e-10
 1.206540e-09
 1.809009e-09
 2.565274e-09
 3.490359e-09
 4.583226e-09
 5.824952e-09
 7.179178e-09
 8.595359e-09
 1.001460e-08
 1.137703e-08
 1.262907e-08
 1.372910e-08
 1.465048e-08
 1.538167e-08
 1.592424e-08
 1.628946e-08
 1.649470e-08
 1.656014e-08
 1.650626e-08
 1.635218e-08
 1.611479e-08
 1.580836e-08
 1.544459e-08
 1.503288e-08
 1.458066e-08
 1.409377e-08
 1.357685e-08
 1.303359e-08
 1.246705e-08
 1.187986e-08
 1.127438e-08
 1.065280e-08
 1.001726e-08
 9.369855e-09
 8.712677e-09
 8.047790e-09
 7.377203e-09
 6.702822e-09
 6.026393e-09
 5.349452e-09
 4.673266e-09
 3.998792e-09
 3.326654e-09
 2.657130e-09
 1.990167e-09
 1.325414e-09
 6.622804e-10
 0.000000e+00
 0.000000e+00
 2.195788e-10
 4.988022e-10
 8.945598e-10
 1.457544e-09
 2.227725e-09
 3.228923e-09
 4.463394e-09
 5.908035e-09
 7.514006e-09
 9.211041e-09
 1.091630e-08
 1.254599e-08
 1.402686e-08
 1.530474e-08
 1.634842e-08
 1.714879e-08
 1.771469e-08
 1.806708e-08
 1.823335e-08
 1.824262e-08
 1.812262e-08
 1.789778e-08
 1.758858e-08
 1.721146e-08
 1.677928e-08
 1.630184e-08
 1.578651e-08
 1.523883e-08
 1.466297e-08
 1.406215e-08
 1.343898e-08
 1.279571e-08
 1.213441e-08
 1.145709e-08
 1.076580e-08
 1.006265e-08
 9.349827e-09
 8.629573e-09
 7.904115e-09
 7.175601e-09
 6.446026e-09
 5.717145e-09
 4.990397e-09
 4.266846e-09
 3.547139e-09
 2.831487e-09
 2.119683e-09
 1.411138e-09
 7.049505e-10
 0.000000e+00
 0.000000e+00
 3.696398e-11
 1.501065e-10
 4.135948e-10
 8.961929e-10
 1.655521e-09
 2.729888e-09
 4.128970e-09
 5.826080e-09
 7.755590e-09
 9.818346e-09
 1.189542e-08
 1.386708e-08
 1.563160e-08
 1.711838e-08
 1.829269e-08
 1.915240e-08
 1.971968e-08
 2.003108e-08
 2.012870e-08
 2.005382e-08
 1.984313e-08
 1.952707e-08
 1.912967e-08
 1.866913e-08
 1.815883e-08
 1.760837e-08
 1.702450e-08
 1.641192e-08
 1.577394e-08
 1.511299e-08
 1.443098e-08
 1.372959e-08
 1.301047e-08
 1.227537e-08
 1.152621e-08
 1.076511e-08
 9.994409e-09
 9.216550e-09
 8.434055e-09
 7.649402e-09
 6.864913e-09
 6.082640e-09
 5.304260e-09
 4.530983e-09
 3.763496e-09
 3.001933e-09
 2.245888e-09
 1.494465e-09
 7.463646e-10
 0.000000e+00
 0.000000e+00
 -2.221245e-10
 -3.497660e-10
 -2.882633e-10
 5.493310e-11
 7.634670e-10
 1.899931e-09
 3.489791e-09
 5.505891e-09
 7.860474e-09
 1.041121e-08
 1.298310e-08
 1.540076e-08
 1.752028e-08
 1.925006e-08
 2.055564e-08
 2.145080e-08
 2.198141e-08
 2.220864e-08
 2.219572e-08
 2.199975e-08
 2.166792e-08
 2.123673e-08
 2.073308e-08
 2.017591e-08
 1.957808e-08
 1.894799e-08
 1.829097e-08
 1.761025e-08
 1.690780e-08
 1.618485e-08
 1.544236e-08
 1.468122e-08
 1.390255e-08
 1.310774e-08
 1.229858e-08
 1.147722e-08
 1.064616e-08
 9.808155e-09
 8.966128e-09
 8.122994e-09
 7.281519e-09
 6.444164e-09
 5.612930e-09
 4.789238e-09
 3.973839e-09
 3.166779e-09
 2.367403e-09
 1.574421e-09
 7.860175e-10
 0.000000e+00
 0.000000e+00
 -5.755962e-10
 -1.039004e-09
 -1.273140e-09
 -1.155048e-09
 -5.627066e-10
 6.075967e-10
 2.413858e-09
 4.837649e-09
 7.763436e-09
 1.098288e-08
 1.423060e-08
 1.724177e-08
 1.980864e-08
 2.181420e-08
 2.323435e-08
 2.411617e-08
 2.454673e-08
 2.462521e-08
 2.444405e-08
 2.407973e-08
 2.359042e-08
 2.301754e-08
 2.238901e-08
 2.172263e-08
 2.102907e-08
 2.031422e-08
 1.958092e-08
 1.883020e-08
 1.806210e-08
 1.727628e-08
 1.647240e-08
 1.565044e-08
 1.481082e-08
 1.395454e-08
 1.308321e-08
 1.219907e-08
 1.130487e-08
 1.040379e-08
 9.499284e-09
 8.594873e-09
 7.693930e-09
 6.799470e-09
 5.913947e-09
 5.039078e-09
 4.175725e-09
 3.323832e-09
 2.482435e-09
 1.649737e-09
 8.232511e-10
 0.000000e+00
 0.000000e+00
 -1.040331e-09
 -1.956317e-09
 -2.610090e-09
 -2.842024e-09
 -2.474333e-09
 -1.333700e-09
 7.034796e-10
 3.650983e-09
 7.362561e-09
 1.152638e-08
 1.572490e-08
 1.954313e-08
 2.267451e-08
 2.497585e-08
 2.645796e-08
 2.723452e-08
 2.746275e-08
 2.729855e-08
 2.687238e-08
 2.628188e-08
 2.559423e-08
 2.485234e-08
 2.408163e-08
 2.329575e-08
 2.250084e-08
 2.169859e-08
 2.088815e-08
 2.006748e-08
 1.923413e-08
 1.838580e-08
 1.752062e-08
 1.663742e-08
 1.573585e-08
 1.481648e-08
 1.388076e-08
 1.293105e-08
 1.197049e-08
 1.100286e-08
 1.003232e-08
 9.063224e-09
 8.099761e-09
 7.145717e-09
 6.204166e-09
 5.277248e-09
 4.365998e-09
 3.470250e-09
 2.588652e-09
 1.718756e-09
 8.572068e-10
 0.000000e+00
 0.000000e+00
 -1.627018e-09
 -3.131895e-09
 -4.365311e-09
 -5.128686e-09
 -5.166687e-09
 -4.190059e-09
 -1.945196e-09
 1.670625e-09
 6.490298e-09
 1.203568e-08
 1.761919e-08
 2.256054e-08
 2.639729e-08
 2.897403e-08
 3.039388e-08
 3.090034e-08
 3.076650e-08
 3.022815e-08
 2.945985e-08
 2.857714e-08
 2.764939e-08
 2.671402e-08
 2.578821e-08
 2.487716e-08
 2.397958e-08
 2.309096e-08
 2.220555e-08
 2.131745e-08
 2.042123e-08
 1.951228e-08
 1.858699e-08
 1.764291e-08
 1.667886e-08
 1.569491e-08
 1.469242e-08
 1.367398e-08
 1.264327e-08
 1.160486e-08
 1.056391e-08
 9.525864e-09
 8.496058e-09
 7.479311e-09
 6.479563e-09
 5.499550e-09
 4.540565e-09
 3.602334e-09
 2.683014e-09
 1.779319e-09
 8.867629e-10
 0.000000e+00
 0.000000e+00
 -2.331197e-09
 -4.570353e-09
 -6.580284e-09
 -8.133701e-09
 -8.878133e-09
 -8.339464e-09
 -6.012009e-09
 -1.569889e-09
 4.853678e-09
 1.250830e-08
 2.019584e-08
 2.673802e-08
 3.142510e-08
 3.415206e-08
 3.524669e-08
 3.519902e-08
 3.446383e-08
 3.337759e-08
 3.215403e-08
 3.091220e-08
 2.970889e-08
 2.856425e-08
 2.747900e-08
 2.644462e-08
 2.544916e-08
 2.448010e-08
 2.352572e-08
 2.257568e-08
 2.162125e-08
 2.065529e-08
 1.967234e-08
 1.866861e-08
 1.764198e-08
 1.659207e-08
 1.552021e-08
 1.442933e-08
 1.332386e-08
 1.220944e-08
 1.109257e-08
 9.980183e-09
 8.879145e-09
 7.795702e-09
 6.734984e-09
 5.700560e-09
 4.694114e-09
 3.715262e-09
 2.761548e-09
 1.828598e-09
 9.104501e-10
 0.000000e+00
 0.000000e+00
 -3.119929e-09
 -6.222838e-09
 -9.229948e-09
 -1.192500e-08
 -1.386364e-08
 -1.430496e-08
 -1.227312e-08
 -6.905083e-09
 1.901388e-09
 1.295196e-08
 2.400643e-08
 3.288098e-08
 3.848757e-08
 4.098673e-08
 4.123237e-08
 4.016333e-08
 3.849094e-08
 3.664852e-08
 3.485632e-08
 3.320289e-08
 3.170665e-08
 3.035371e-08
 2.911839e-08
 2.797311e-08
 2.689251e-08
 2.585480e-08
 2.484180e-08
 2.383859e-08
 2.283306e-08
 2.181557e-08
 2.077877e-08
 1.971748e-08
 1.862866e-08
 1.751148e-08
 1.636727e-08
 1.519949e-08
 1.401356e-08
 1.281654e-08
 1.161673e-08
 1.042305e-08
 9.244450e-09
 8.089105e-09
 6.963790e-09
 5.873243e-09
 4.819717e-09
 3.802731e-09
 2.819047e-09
 1.862883e-09
 9.263390e-10
 0.000000e+00
 0.000000e+00
 -3.915828e-09
 -7.948785e-09
 -1.215338e-08
 -1.642008e-08
 -2.029884e-08
 -2.275175e-08
 -2.199833e-08
 -1.591984e-08
 -3.499139e-09
 1.340352e-08
 3.021037e-08
 4.252201e-08
 4.877229e-08
 5.007883e-08
 4.848716e-08
 4.568181e-08
 4.265241e-08
 3.984799e-08
 3.740885e-08
 3.533151e-08
 3.355941e-08
 3.202536e-08
 3.066820e-08
 2.943754e-08
 2.829358e-08
 2.720533e-08
 2.614857e-08
 2.510423e-08
 2.405719e-08
 2.299552e-08
 2.191006e-08
 2.079424e-08
 1.964407e-08
 1.845826e-08
 1.723822e-08
 1.598808e-08
 1.471454e-08
 1.342655e-08
 1.213474e-08
 1.085074e-08
 9.586255e-09
 8.352136e-09
 7.157409e-09
 6.008441e-09
 4.908314e-09
 3.856468e-09
 2.848669e-09
 1.877292e-09
 9.318896e-10
 0.000000e+00
 0.000000e+00
 -4.585226e-09
 -9.477954e-09
 -1.496060e-08
 -2.120422e-08
 -2.802165e-08
 -3.431409e-08
 -3.721168e-08
 -3.181685e-08
 -1.393584e-08
 1.399030e-08
 4.148439e-08
 5.871884e-08
 6.413185e-08
 6.197818e-08
 5.682735e-08
 5.133352e-08
 4.653988e-08
 4.266038e-08
 3.959204e-08
 3.715375e-08
 3.517546e-08
 3.352206e-08
 3.209330e-08
 3.081672e-08
 2.964008e-08
 2.852522e-08
 2.744356e-08
 2.637308e-08
 2.529641e-08
 2.419970e-08
 2.307215e-08
 2.190578e-08
 2.069559e-08
 1.943973e-08
 1.813970e-08
 1.680044e-08
 1.543027e-08
 1.404054e-08
 1.264497e-08
 1.125876e-08
 9.897388e-09
 8.575327e-09
 7.304713e-09
 6.094184e-09
 4.948008e-09
 3.865584e-09
 2.841392e-09
 1.865384e-09
 9.237505e-10
 0.000000e+00
 0.000000e+00
 -4.944457e-09
 -1.040279e-08
 -1.695582e-08
 -2.527478e-08
 -3.596792e-08
 -4.884606e-08
 -6.069221e-08
 -6.143000e-08
 -3.615796e-08
 1.516418e-08
 6.478769e-08
 8.776931e-08
 8.697628e-08
 7.648460e-08
 6.523728e-08
 5.615731e-08
 4.946818e-08
 4.465246e-08
 4.114863e-08
 3.852241e-08
 3.647254e-08
 3.479874e-08
 3.336956e-08
 3.209826e-08
 3.092636e-08
 2.981297e-08
 2.872812e-08
 2.764870e-08
 2.655614e-08
 2.543521e-08
 2.427353e-08
 2.306166e-08
 2.179334e-08
 2.046596e-08
 1.908097e-08
 1.764422e-08
 1.616597e-08
 1.466061e-08
 1.314589e-08
 1.164177e-08
 1.016882e-08
 8.746482e-09
 7.391189e-09
 6.114752e-09
 4.923119e-09
 3.815700e-09
 2.785297e-09
 1.818651e-09
 8.974930e-10
 0.000000e+00
 0.000000e+00
 -4.801842e-09
 -1.025177e-08
 -1.718805e-08
 -2.687764e-08
 -4.130297e-08
 -6.318056e-08
 -9.376585e-08
 -1.195184e-07
 -9.094491e-08
 1.877205e-08
 1.211117e-07
 1.421542e-07
 1.181100e-07
 9.069117e-08
 7.109117e-08
 5.850092e-08
 5.052820e-08
 4.535748e-08
 4.185045e-08
 3.933145e-08
 3.740480e-08
 3.583802e-08
 3.449248e-08
 3.328323e-08
 3.215587e-08
 3.107327e-08
 3.000797e-08
 2.893800e-08
 2.784473e-08
 2.671192e-08
 2.552564e-08
 2.427461e-08
 2.295085e-08
 2.155053e-08
 2.007476e-08
 1.853020e-08
 1.692937e-08
 1.529042e-08
 1.363633e-08