<VTKFile type="UnstructuredGrid"  version="0.1"   >
<UnstructuredGrid>  
<Piece  NumberOfPoints="     2601"  NumberOfCells="     5000">  
<Points>  
<DataArray  type="Float64"  NumberOfComponents="3"  format="ascii">  
 0.000000 0.000000 0.000000 
 0.020000 0.000000 0.000000 
 0.040000 0.000000 0.000000 
 0.060000 0.000000 0.000000 
 0.080000 0.000000 0.000000 
 0.100000 0.000000 0.000000 
 0.120000 0.000000 0.000000 
 0.140000 0.000000 0.000000 
 0.160000 0.000000 0.000000 
 0.180000 0.000000 0.000000 
 0.200000 0.000000 0.000000 
 0.220000 0.000000 0.000000 
 0.240000 0.000000 0.000000 
 0.260000 0.000000 0.000000 
 0.280000 0.000000 0.000000 
 0.300000 0.000000 0.000000 
 0.320000 0.000000 0.000000 
 0.340000 0.000000 0.000000 
 0.360000 0.000000 0.000000 
 0.380000 0.000000 0.000000 
 0.400000 0.000000 0.000000 
 0.420000 0.000000 0.000000 
 0.440000 0.000000 0.000000 
 0.460000 0.000000 0.000000 
 0.480000 0.000000 0.000000 
 0.500000 0.000000 0.000000 
 0.520000 0.000000 0.000000 
 0.540000 0.000000 0.000000 
 0.560000 0.000000 0.000000 
 0.580000 0.000000 0.000000 
 0.600000 0.000000 0.000000 
 0.620000 0.000000 0.000000 
 0.640000 0.000000 0.000000 
 0.660000 0.000000 0.000000 
 0.680000 0.000000 0.000000 
 0.700000 0.000000 0.000000 
 0.720000 0.000000 0.000000 
 0.740000 0.000000 0.000000 
 0.760000 0.000000 0.000000 
 0.780000 0.000000 0.000000 
 0.800000 0.000000 0.000000 
 0.820000 0.000000 0.000000 
 0.840000 0.000000 0.000000 
 0.860000 0.000000 0.000000 
 0.880000 0.000000 0.000000 
 0.900000 0.000000 0.000000 
 0.920000 0.000000 0.000000 
 0.940000 0.000000 0.000000 
 0.960000 0.000000 0.000000 
 0.980000 0.000000 0.000000 
 1.000000 0.000000 0.000000 
 0.000000 0.020000 0.000000 
 0.020000 0.020000 0.000000 
 0.040000 0.020000 0.000000 
 0.060000 0.020000 0.000000 
 0.080000 0.020000 0.000000 
 0.100000 0.020000 0.000000 
 0.120000 0.020000 0.000000 
 0.140000 0.020000 0.000000 
 0.160000 0.020000 0.000000 
 0.180000 0.020000 0.000000 
 0.200000 0.020000 0.000000 
 0.220000 0.020000 0.000000 
 0.240000 0.020000 0.000000 
 0.260000 0.020000 0.000000 
 0.280000 0.020000 0.000000 
 0.300000 0.020000 0.000000 
 0.320000 0.020000 0.000000 
 0.340000 0.020000 0.000000 
 0.360000 0.020000 0.000000 
 0.380000 0.020000 0.000000 
 0.400000 0.020000 0.000000 
 0.420000 0.020000 0.000000 
 0.440000 0.020000 0.000000 
 0.460000 0.020000 0.000000 
 0.480000 0.020000 0.000000 
 0.500000 0.020000 0.000000 
 0.520000 0.020000 0.000000 
 0.540000 0.020000 0.000000 
 0.560000 0.020000 0.000000 
 0.580000 0.020000 0.000000 
 0.600000 0.020000 0.000000 
 0.620000 0.020000 0.000000 
 0.640000 0.020000 0.000000 
 0.660000 0.020000 0.000000 
 0.680000 0.020000 0.000000 
 0.700000 0.020000 0.000000 
 0.720000 0.020000 0.000000 
 0.740000 0.020000 0.000000 
 0.760000 0.020000 0.000000 
 0.780000 0.020000 0.000000 
 0.800000 0.020000 0.000000 
 0.820000 0.020000 0.000000 
 0.840000 0.020000 0.000000 
 0.860000 0.020000 0.000000 
 0.880000 0.020000 0.000000 
 0.900000 0.020000 0.000000 
 0.920000 0.020000 0.000000 
 0.940000 0.020000 0.000000 
 0.960000 0.020000 0.000000 
 0.980000 0.020000 0.000000 
 1.000000 0.020000 0.000000 
 0.000000 0.040000 0.000000 
 0.020000 0.040000 0.000000 
 0.040000 0.040000 0.000000 
 0.060000 0.040000 0.000000 
 0.080000 0.040000 0.000000 
 0.100000 0.040000 0.000000 
 0.120000 0.040000 0.000000 
 0.140000 0.040000 0.000000 
 0.160000 0.040000 0.000000 
 0.180000 0.040000 0.000000 
 0.200000 0.040000 0.000000 
 0.220000 0.040000 0.000000 
 0.240000 0.040000 0.000000 
 0.260000 0.040000 0.000000 
 0.280000 0.040000 0.000000 
 0.300000 0.040000 0.000000 
 0.320000 0.040000 0.000000 
 0.340000 0.040000 0.000000 
 0.360000 0.040000 0.000000 
 0.380000 0.040000 0.000000 
 0.400000 0.040000 0.000000 
 0.420000 0.040000 0.000000 
 0.440000 0.040000 0.000000 
 0.460000 0.040000 0.000000 
 0.480000 0.040000 0.000000 
 0.500000 0.040000 0.000000 
 0.520000 0.040000 0.000000 
 0.540000 0.040000 0.000000 
 0.560000 0.040000 0.000000 
 0.580000 0.040000 0.000000 
 0.600000 0.040000 0.000000 
 0.620000 0.040000 0.000000 
 0.640000 0.040000 0.000000 
 0.660000 0.040000 0.000000 
 0.680000 0.040000 0.000000 
 0.700000 0.040000 0.000000 
 0.720000 0.040000 0.000000 
 0.740000 0.040000 0.000000 
 0.760000 0.040000 0.000000 
 0.780000 0.040000 0.000000 
 0.800000 0.040000 0.000000 
 0.820000 0.040000 0.000000 
 0.840000 0.040000 0.000000 
 0.860000 0.040000 0.000000 
 0.880000 0.040000 0.000000 
 0.900000 0.040000 0.000000 
 0.920000 0.040000 0.000000 
 0.940000 0.040000 0.000000 
 0.960000 0.040000 0.000000 
 0.980000 0.040000 0.000000 
 1.000000 0.040000 0.000000 
 0.000000 0.060000 0.000000 
 0.020000 0.060000 0.000000 
 0.040000 0.060000 0.000000 
 0.060000 0.060000 0.000000 
 0.080000 0.060000 0.000000 
 0.100000 0.060000 0.000000 
 0.120000 0.060000 0.000000 
 0.140000 0.060000 0.000000 
 0.160000 0.060000 0.000000 
 0.180000 0.060000 0.000000 
 0.200000 0.060000 0.000000 
 0.220000 0.060000 0.000000 
 0.240000 0.060000 0.000000 
 0.260000 0.060000 0.000000 
 0.280000 0.060000 0.000000 
 0.300000 0.060000 0.000000 
 0.320000 0.060000 0.000000 
 0.340000 0.060000 0.000000 
 0.360000 0.060000 0.000000 
 0.380000 0.060000 0.000000 
 0.400000 0.060000 0.000000 
 0.420000 0.060000 0.000000 
 0.440000 0.060000 0.000000 
 0.460000 0.060000 0.000000 
 0.480000 0.060000 0.000000 
 0.500000 0.060000 0.000000 
 0.520000 0.060000 0.000000 
 0.540000 0.060000 0.000000 
 0.560000 0.060000 0.000000 
 0.580000 0.060000 0.000000 
 0.600000 0.060000 0.000000 
 0.620000 0.060000 0.000000 
 0.640000 0.060000 0.000000 
 0.660000 0.060000 0.000000 
 0.680000 0.060000 0.000000 
 0.700000 0.060000 0.000000 
 0.720000 0.060000 0.000000 
 0.740000 0.060000 0.000000 
 0.760000 0.060000 0.000000 
 0.780000 0.060000 0.000000 
 0.800000 0.060000 0.000000 
 0.820000 0.060000 0.000000 
 0.840000 0.060000 0.000000 
 0.860000 0.060000 0.000000 
 0.880000 0.060000 0.000000 
 0.900000 0.060000 0.000000 
 0.920000 0.060000 0.000000 
 0.940000 0.060000 0.000000 
 0.960000 0.060000 0.000000 
 0.980000 0.060000 0.000000 
 1.000000 0.060000 0.000000 
 0.000000 0.080000 0.000000 
 0.020000 0.080000 0.000000 
 0.040000 0.080000 0.000000 
 0.060000 0.080000 0.000000 
 0.080000 0.080000 0.000000 
 0.100000 0.080000 0.000000 
 0.120000 0.080000 0.000000 
 0.140000 0.080000 0.000000 
 0.160000 0.080000 0.000000 
 0.180000 0.080000 0.000000 
 0.200000 0.080000 0.000000 
 0.220000 0.080000 0.000000 
 0.240000 0.080000 0.000000 
 0.260000 0.080000 0.000000 
 0.280000 0.080000 0.000000 
 0.300000 0.080000 0.000000 
 0.320000 0.080000 0.000000 
 0.340000 0.080000 0.000000 
 0.360000 0.080000 0.000000 
 0.380000 0.080000 0.000000 
 0.400000 0.080000 0.000000 
 0.420000 0.080000 0.000000 
 0.440000 0.080000 0.000000 
 0.460000 0.080000 0.000000 
 0.480000 0.080000 0.000000 
 0.500000 0.080000 0.000000 
 0.520000 0.080000 0.000000 
 0.540000 0.080000 0.000000 
 0.560000 0.080000 0.000000 
 0.580000 0.080000 0.000000 
 0.600000 0.080000 0.000000 
 0.620000 0.080000 0.000000 
 0.640000 0.080000 0.000000 
 0.660000 0.080000 0.000000 
 0.680000 0.080000 0.000000 
 0.700000 0.080000 0.000000 
 0.720000 0.080000 0.000000 
 0.740000 0.080000 0.000000 
 0.760000 0.080000 0.000000 
 0.780000 0.080000 0.000000 
 0.800000 0.080000 0.000000 
 0.820000 0.080000 0.000000 
 0.840000 0.080000 0.000000 
 0.860000 0.080000 0.000000 
 0.880000 0.080000 0.000000 
 0.900000 0.080000 0.000000 
 0.920000 0.080000 0.000000 
 0.940000 0.080000 0.000000 
 0.960000 0.080000 0.000000 
 0.980000 0.080000 0.000000 
 1.000000 0.080000 0.000000 
 0.000000 0.100000 0.000000 
 0.020000 0.100000 0.000000 
 0.040000 0.100000 0.000000 
 0.060000 0.100000 0.000000 
 0.080000 0.100000 0.000000 
 0.100000 0.100000 0.000000 
 0.120000 0.100000 0.000000 
 0.140000 0.100000 0.000000 
 0.160000 0.100000 0.000000 
 0.180000 0.100000 0.000000 
 0.200000 0.100000 0.000000 
 0.220000 0.100000 0.000000 
 0.240000 0.100000 0.000000 
 0.260000 0.100000 0.000000 
 0.280000 0.100000 0.000000 
 0.300000 0.100000 0.000000 
 0.320000 0.100000 0.000000 
 0.340000 0.100000 0.000000 
 0.360000 0.100000 0.000000 
 0.380000 0.100000 0.000000 
 0.400000 0.100000 0.000000 
 0.420000 0.100000 0.000000 
 0.440000 0.100000 0.000000 
 0.460000 0.100000 0.000000 
 0.480000 0.100000 0.000000 
 0.500000 0.100000 0.000000 
 0.520000 0.100000 0.000000 
 0.540000 0.100000 0.000000 
 0.560000 0.100000 0.000000 
 0.580000 0.100000 0.000000 
 0.600000 0.100000 0.000000 
 0.620000 0.100000 0.000000 
 0.640000 0.100000 0.000000 
 0.660000 0.100000 0.000000 
 0.680000 0.100000 0.000000 
 0.700000 0.100000 0.000000 
 0.720000 0.100000 0.000000 
 0.740000 0.100000 0.000000 
 0.760000 0.100000 0.000000 
 0.780000 0.100000 0.000000 
 0.800000 0.100000 0.000000 
 0.820000 0.100000 0.000000 
 0.840000 0.100000 0.000000 
 0.860000 0.100000 0.000000 
 0.880000 0.100000 0.000000 
 0.900000 0.100000 0.000000 
 0.920000 0.100000 0.000000 
 0.940000 0.100000 0.000000 
 0.960000 0.100000 0.000000 
 0.980000 0.100000 0.000000 
 1.000000 0.100000 0.000000 
 0.000000 0.120000 0.000000 
 0.020000 0.120000 0.000000 
 0.040000 0.120000 0.000000 
 0.060000 0.120000 0.000000 
 0.080000 0.120000 0.000000 
 0.100000 0.120000 0.000000 
 0.120000 0.120000 0.000000 
 0.140000 0.120000 0.000000 
 0.160000 0.120000 0.000000 
 0.180000 0.120000 0.000000 
 0.200000 0.120000 0.000000 
 0.220000 0.120000 0.000000 
 0.240000 0.120000 0.000000 
 0.260000 0.120000 0.000000 
 0.280000 0.120000 0.000000 
 0.300000 0.120000 0.000000 
 0.320000 0.120000 0.000000 
 0.340000 0.120000 0.000000 
 0.360000 0.120000 0.000000 
 0.380000 0.120000 0.000000 
 0.400000 0.120000 0.000000 
 0.420000 0.120000 0.000000 
 0.440000 0.120000 0.000000 
 0.460000 0.120000 0.000000 
 0.480000 0.120000 0.000000 
 0.500000 0.120000 0.000000 
 0.520000 0.120000 0.000000 
 0.540000 0.120000 0.000000 
 0.560000 0.120000 0.000000 
 0.580000 0.120000 0.000000 
 0.600000 0.120000 0.000000 
[...]
<PointData  Scalars="U"> 
<DataArray  type="Float64"  Name="U"  format="ascii"> 
 0.000000e+00
 0.000000e+00
 0.000000e+00
 0.000000e+00
 0.000000e+00
 0.000000e+00
 0.000000e+00
 0.000000e+00
 0.000000e+00
 0.000000e+00
 0.000000e+00
 0.000000e+00
 0.000000e+00
 0.000000e+00
 0.000000e+00
 0.000000e+00
 0.000000e+00
 0.000000e+00
 0.000000e+00
 0.000000e+00
 0.000000e+00
 0.000000e+00
 0.000000e+00
 0.000000e+00
 0.000000e+00
 0.000000e+00
 0.000000e+00
 0.000000e+00
 0.000000e+00
 0.000000e+00
 0.000000e+00
 0.000000e+00
 0.000000e+00
 0.000000e+00
 0.000000e+00
 0.000000e+00
 0.000000e+00
 0.000000e+00
 0.000000e+00
 0.000000e+00
 0.000000e+00
 0.000000e+00
 0.000000e+00
 0.000000e+00
 0.000000e+00
 0.000000e+00
 0.000000e+00
 0.000000e+00
 0.000000e+00
 0.000000e+00
 0.000000e+00
 0.000000e+00
 9.859040e-07
 -3.454554e-07
 -9.176129e-07
 7.463927e-08
 2.414314e-07
 1.690604e-07
 1.866402e-07
 3.543141e-09
 -1.113387e-07
 1.089128e-06
 4.705623e-08
 -1.679335e-06
 -3.299319e-08
 8.821163e-07
 5.648179e-07
 1.865678e-07
 7.509338e-07
 -1.159289e-07
 -6.585525e-07
 -4.820672e-07
 -1.399902e-06
 1.123473e-06
 -3.637428e-07
 -8.083800e-07
 4.470377e-07
 1.024567e-06
 -9.696733e-07
 6.678379e-07
 8.755601e-07
 -6.180034e-07
 2.650283e-10
 2.165049e-07
 2.761036e-07
 1.037402e-07
 -1.337089e-07
 3.751366e-08
 3.158832e-07
 -3.572249e-08
 -5.001735e-07
 -3.718362e-07
 9.924713e-08
 1.773535e-07
 -8.980582e-08
 -6.280752e-08
 5.856678e-08
 -1.021215e-07
 -2.133745e-07
 -6.004759e-08
 2.173103e-08
 0.000000e+00
 0.000000e+00
 -3.657009e-07
 -1.910396e-05
 -4.007276e-07
 9.378783e-07
 8.467257e-07
 -4.709513e-07
 1.039334e-06
 1.893382e-07
 -1.193696e-06
 -3.453468e-07
 -1.705189e-05
 1.854849e-06
 1.765620e-05
 -7.839676e-07
 2.661365e-06
 4.934613e-07
 -2.833528e-06
 -1.775656e-05
 2.005009e-06
 -1.042538e-06
 -1.742381e-06
 1.828173e-05
 -1.769384e-05
 1.729173e-05
 -2.140509e-06
 -6.536823e-07
 -1.766287e-05
 1.847543e-05
 -1.667229e-05
 -3.077448e-07
 3.732305e-07
 4.261174e-07
 1.146924e-06
 8.939431e-07
 -7.174706e-07
 -4.299205e-07
 2.458728e-06
 2.388384e-07
 -1.724704e-06
 -1.713258e-06
 1.078049e-06
 9.972676e-07
 -7.244806e-07
 -3.536456e-07
 1.007869e-06
 -1.801103e-07
 -8.772940e-07
 7.047259e-08
 1.610257e-07
 0.000000e+00
 0.000000e+00
 -9.948791e-07
 -5.168193e-07
 1.702885e-05
 -6.741964e-07
 3.019134e-06
 1.621710e-06
 1.659312e-05
 -2.033354e-05
 -9.442236e-07
 -2.286774e-06
 2.078207e-07
 3.948390e-06
 -1.628505e-05
 -4.871878e-06
 5.959914e-07
 -3.145072e-05
 -1.297278e-06
 1.678064e-05
 2.728885e-06
 -1.750072e-05
 2.019275e-05
 1.788351e-05
 -2.441685e-07
 1.972912e-05
 -2.016849e-06
 3.280491e-05
 -1.638540e-06
 1.555774e-05
 -1.882046e-05
 1.722196e-06
 1.735861e-06
 1.225919e-06
 -1.173530e-06
 -1.946488e-05
 -1.702991e-05
 9.392572e-07
 -9.561245e-07
 -3.344118e-05
 1.055380e-06
 -1.135152e-06
 1.702829e-05
 -1.608892e-05
 1.396191e-07
 -2.122310e-06
 4.256251e-07
 -1.819047e-05
 -3.916360e-07
 1.165349e-06
 4.365998e-07
 0.000000e+00
 0.000000e+00
 -7.937494e-08
 5.539597e-07
 -1.093124e-06
 1.559524e-05
 2.000548e-05
 -1.537836e-05
 -1.175765e-06
 -4.180043e-07
 3.631179e-05
 -1.634904e-06
 3.373159e-05
 8.320094e-08
 -4.780675e-07
 -1.770693e-05
 5.277608e-05
 -1.737548e-05
 -1.545167e-05
 5.141297e-07
 -6.971317e-07
 -1.532185e-05
 1.919119e-05
 -3.605535e-05
 4.864290e-08
 -1.677119e-05
 -1.617001e-05
 1.235468e-06
 -2.300626e-06
 1.457540e-05
 1.242318e-05
 -1.275488e-06
 4.910979e-07
 -1.770878e-05
 -1.977822e-05
 -4.341820e-07
 2.185911e-05
 2.241285e-06
 -2.616561e-06
 1.779968e-05
 -1.282560e-05
 -1.211073e-06
 -3.201482e-06
 -1.170111e-07
 -1.528989e-05
 1.536929e-09
 1.504110e-05
 -1.890007e-05
 1.970374e-05
 1.471666e-06
 4.710901e-07
 0.000000e+00
 0.000000e+00
 2.590327e-07
 -3.431327e-07
 1.249329e-06
 1.862885e-05
 1.563937e-05
 -1.830162e-05
 1.081937e-06
 1.816736e-06
 -1.906779e-05
 -2.053431e-05
 7.169358e-07
 -3.987668e-06
 -2.083268e-05
 1.815603e-06
 -1.250414e-06
 -3.952411e-05
 2.377128e-06
 2.453477e-06
 -3.405411e-08
 4.442180e-06
 1.433397e-06
 1.466963e-05
 -4.942180e-07
 -1.216345e-06
 6.099101e-06
 1.929344e-06
 -1.695551e-05
 1.494914e-06
 -1.445085e-06
 3.171804e-05
 1.343518e-05
 -4.591311e-06
 7.703106e-07
 2.061732e-05
 -1.683840e-06
 -3.811616e-05
 -1.710035e-05
 2.848898e-06
 2.965903e-06
 -1.472423e-05
 3.394151e-05
 1.518512e-05
 7.977274e-07
 3.107390e-06
 -9.440619e-07
 1.652868e-05
 1.890984e-05
 -6.212573e-07
 1.028286e-07
 0.000000e+00
 0.000000e+00
 6.130263e-07
 2.197952e-06
 1.915572e-05
 -1.253843e-06
 -2.911472e-06
 1.639383e-06
 2.867871e-07
 -3.042186e-06
 -1.913725e-05
 1.991137e-05
 1.787185e-05
 -1.984680e-05
 1.697195e-05
 1.769639e-05
 -4.583413e-06
 1.627445e-05
 1.673968e-06
 1.522811e-06
 3.524310e-06
 1.871249e-05
 -3.316803e-05
 -4.056096e-08
 -2.052229e-06
 1.718394e-05
 1.644285e-05
 -5.277621e-05
 1.936995e-05
 -1.245252e-05
 3.016631e-06
 -1.852683e-05
 -6.154610e-06
 -2.138086e-06
 3.618099e-05
 9.721367e-07
 -5.246546e-06
 1.208904e-05
 1.982957e-05
 2.141326e-05
 -1.605676e-05
 -1.481967e-05
 -1.507415e-05
 -2.929751e-06
 -4.501910e-06
 -1.833639e-05
 -1.417672e-05
 1.351891e-06
 -8.316067e-07
 -6.783340e-07
 -1.590229e-07
 0.000000e+00
 0.000000e+00
 5.015688e-07
 1.602777e-06
 -1.549780e-05
 -2.232406e-07
 1.493280e-05
 -2.997629e-06
 -5.567072e-05
 1.793052e-08
 3.376034e-06
 2.041170e-05
 -1.874573e-05
 1.673750e-05
 -1.157100e-07
 -1.897963e-06
 2.352959e-07
 3.444863e-05
 -1.433186e-06
 3.530320e-05
 -6.068350e-07
 -2.009029e-05
 -3.754675e-07
 -1.463484e-05
 1.033604e-06
 1.905919e-06
 -3.280483e-06
 1.483268e-05
 1.646688e-06
 1.292314e-06
 -3.465835e-05
 -1.834153e-05
 -1.715581e-05
 1.899809e-05
 -1.671071e-05
 -3.812275e-06
 -3.639098e-05
 1.893475e-05
 3.701628e-05
 1.675097e-05
 -3.107217e-06
 -1.532815e-07
 3.006713e-06
 2.247525e-06
 -1.933988e-06
 3.403138e-05
 2.151188e-05
 2.631444e-06
 1.678634e-05
 -6.499124e-07
 -3.184832e-07
 0.000000e+00
 0.000000e+00
 6.342845e-08
 -4.501701e-07
 2.171337e-07
 -1.595942e-05
 -1.897986e-05
 -6.154569e-06
 -1.502290e-06
 4.259043e-05
 3.363797e-06
 2.696529e-07
 2.236563e-07
 2.938987e-06
 -1.407035e-06
 1.527940e-05
 -4.889580e-07
 -1.779083e-05
 7.280110e-07
 1.047940e-06
 -3.651809e-06
 1.707175e-05
 1.811526e-05
 -3.308095e-06
 -6.630947e-07
 1.947123e-06
 -1.564588e-05
 1.226544e-06
 1.588716e-05
 1.474086e-05
 -1.953421e-05
 1.817205e-05
 2.850728e-06
 1.913267e-05
 4.057614e-07
 -1.044299e-07
 1.801688e-05
 2.181908e-05
 4.614641e-07
 -2.140289e-05
 -1.989270e-05
 -1.594625e-06
 -1.494807e-07
 -1.717081e-05
 -1.671264e-05
 1.166422e-06
 2.220578e-06
 -1.610432e-05
 -1.266542e-06
 -1.709400e-06
 -3.948808e-07
 0.000000e+00
 0.000000e+00
 -1.852147e-07
 2.010563e-07
 -1.326209e-06
 -1.368807e-07
 8.608805e-07
 -1.248594e-07
 1.870419e-05
 1.934809e-05
 -3.617768e-05
 -1.068872e-06
 -1.561404e-05
 1.330629e-06
 -3.511713e-05
 -4.197422e-07
 -8.929500e-07
 1.576626e-05
 -1.374946e-06
 -1.692043e-05
 -1.496212e-05
 9.683799e-07
 -1.898672e-05
 -1.987719e-05
 3.457279e-05
 1.652920e-05
 6.119566e-07
 2.627430e-06
 -1.858619e-05
 -1.287521e-06
 1.817499e-06
 1.903087e-05
 1.574751e-05
 -3.758574e-06
 1.216547e-07
 -1.473543e-05
 5.583310e-07
 -2.440871e-07
 -3.478089e-06
 -2.202985e-05
 3.517254e-07
 -1.607640e-05
 1.877705e-05
 5.858638e-07
 1.868237e-05
 1.923980e-05
 1.745169e-05
 -3.426047e-05
 1.530421e-06
 -6.405975e-08
 -1.846941e-07
 0.000000e+00
 0.000000e+00
 5.626473e-07
 -3.229319e-06
 -2.022510e-05
 2.056547e-06
 -1.711033e-05
 1.849413e-06
 -9.443813e-07
 -4.640979e-06
 -1.752589e-05
 2.592173e-06
 1.994722e-05
 -1.731205e-05
 -9.010325e-07
 1.506482e-06
 2.132289e-06
 -1.731346e-05
 1.410935e-05
 1.599135e-05
 9.685897e-08
 -1.615867e-05
 3.616941e-06
 3.867057e-06
 1.847367e-05
 -1.400673e-06
 1.632786e-05
 -5.549926e-07
 -3.143152e-06
 1.736150e-05
 -1.446161e-05
 -1.391456e-05
 1.972564e-06
 1.617777e-05
 4.904770e-05
 -1.911076e-05
 2.952607e-07
 -1.434455e-06
 -2.101481e-05
 -2.234367e-06
 1.940347e-05
 3.314974e-06
 1.988082e-05
 -1.847167e-05
 -2.358879e-07
 -8.850719e-07
 -1.971077e-06
 -2.251022e-07
 2.696751e-06
 2.245378e-07
 -9.331461e-08
 0.000000e+00
 0.000000e+00
 -2.256957e-07
 -1.855386e-05
 3.421176e-05
 1.630326e-05
 -1.710596e-05
 2.027512e-05
 -1.718639e-05
 3.337576e-05
 1.815929e-05
 5.960840e-07
 -3.984972e-06
 -3.463798e-05
 2.186508e-06
 6.511804e-07
 1.810244e-05
 -1.812863e-05
 7.125398e-07
 -1.425547e-06
 -1.322712e-06
 1.762335e-05
 2.042771e-06
 -3.110017e-05
 1.092588e-06
 -1.938787e-06
 -1.519191e-05
 -3.514647e-07
 -1.894308e-05
 3.320623e-05
 -9.805845e-07
 1.849524e-06
 -1.510781e-05
 -3.261554e-05
 -1.995717e-05
 -3.529171e-06
 -1.418062e-06
 -3.299664e-06
 2.019243e-07
 1.805732e-05
 1.973925e-05
 2.598710e-06
 8.717229e-07
 3.990602e-08
 1.781930e-05
 1.767031e-05
 1.703264e-05
 2.655391e-07
 6.024738e-08
 -8.663973e-07
 -2.738024e-07
 0.000000e+00
 0.000000e+00
 -3.304994e-07
 2.002255e-06
 2.046404e-06
 -4.043718e-06
 1.587965e-05
 1.627688e-06
 9.384435e-07
 -1.310405e-06
 -1.705712e-06
 -1.658258e-05
 1.463707e-05
 3.360009e-05
 -1.440110e-05
 2.059136e-05
 8.129646e-07
 -2.106870e-06
 1.612757e-05
 -8.845227e-07
 -1.831343e-06
 -1.908902e-05
 3.617796e-07
 1.895077e-06
 -1.587900e-05
 1.007436e-07
 1.889872e-05
 -3.289523e-05
 1.228148e-06
 -6.986753e-07
 -4.788823e-06
 -1.891457e-05
 -6.155112e-08
 1.581907e-06
 2.618389e-06
 9.555291e-07
 -1.858960e-05
 1.755448e-05
 2.036699e-05
 1.213483e-06
 3.337627e-05
 -1.625222e-05
 2.853962e-07
 -1.820929e-05
 -1.800576e-05
 -5.889599e-07
 -1.822609e-05
 -2.694959e-07
 -1.774861e-05
 -9.141156e-07
 -2.369059e-07
 0.000000e+00
 0.000000e+00
 2.782193e-07
 2.058092e-06
 1.566929e-06
 2.005018e-06
 1.884893e-05
 1.670190e-05
 -1.349932e-06
 -2.041073e-06
 3.273260e-05
 -1.637395e-05
 -1.550582e-05
 -2.782858e-06
 -1.121154e-06
 1.887081e-06
 -1.814106e-05
 -1.693380e-05
 -3.237505e-07
 1.694980e-05
 -1.038445e-06
 3.456435e-05
 1.649873e-05
 -1.757551e-05
 1.705698e-06
 1.969142e-05
 1.319079e-06
 -1.090820e-06
 -1.649374e-05
 -2.447071e-07
 -1.826145e-06
 1.659240e-05
 1.090248e-06
 1.676809e-06
 8.070944e-07
 7.862368e-07
 2.868641e-06
 1.940818e-05
 -1.273171e-06
 -1.761289e-05
 -2.815758e-06
 -3.056798e-06
 -3.398716e-05
 -2.327918e-07
 1.096560e-06
 1.777035e-05
 -3.962452e-07
 -6.457358e-09
 -1.755740e-05
 1.191462e-06
 1.304560e-07
 0.000000e+00
 0.000000e+00
 -2.189185e-07
 -8.058959e-07
 -1.500118e-05
 3.085948e-06
 -1.649020e-05
 -1.857686e-05
 -1.932255e-05
 -5.126051e-07
 -3.970260e-06
 -3.911831e-06
 -1.586963e-05
 2.006635e-09
 1.242699e-06
 4.335140e-07
 -2.969103e-07
 2.216698e-06
 6.003714e-07
 -1.009417e-06
 -1.620944e-05
 -3.460740e-07
 -2.263477e-05
 1.615127e-05
 -1.669472e-05
 1.964770e-06
 -3.578076e-07
 -3.718809e-05
 2.797907e-07
 2.717524e-06
 -5.757733e-07
 -2.262309e-07
 -7.190402e-07
 -5.906199e-07
 -1.735613e-05
 7.938627e-07
 -1.514843e-05
 -1.608996e-05
 -1.538589e-06
 -6.361955e-07
 -4.159702e-07
 1.603068e-05
 1.216111e-06
 3.340057e-06
 -4.455904e-07
 -6.220995e-07
 -8.726028e-07
 -1.105134e-06
 -1.354111e-07
 1.270172e-06
 2.337099e-07
 0.000000e+00
 0.000000e+00
 -5.212504e-07
 -3.074087e-06
 1.916924e-05
 -1.557754e-05
 7.228040e-07
 2.410064e-06
 1.210822e-06
 -1.607587e-06
 -3.413043e-06
 1.687028e-05
 3.239341e-07
 -4.059738e-07
 1.760625e-05
 -1.569340e-05
 -2.398311e-06
 -1.947477e-05
 -1.538247e-05
 2.029529e-05
 2.001224e-05
 1.952694e-07
 1.644434e-05
 1.679407e-05
 -1.179596e-06
 3.762714e-05
 -2.111392e-05
 -3.311245e-06
 2.947202e-06
 1.477656e-06
 -1.735804e-05
 1.576410e-05
 -1.817744e-05
 -1.312896e-07
 -1.080353e-06
 -7.692738e-09
 1.852601e-06
 3.310817e-06
 1.458180e-06
 2.866909e-07
 -2.970116e-06
 -2.204197e-06
 -1.760321e-05
 -1.630550e-05
 -1.630062e-05
 1.896721e-05
 -1.858250e-07
 5.405397e-08
 -1.215358e-07
 -5.583595e-07
 2.631274e-08
 0.000000e+00
 0.000000e+00
 -1.794640e-08
 -5.419713e-07
 3.538917e-05
 -1.779879e-05
 1.800128e-05
 -1.729534e-05
 -1.823296e-05
 -1.738661e-05
 1.811312e-05
 1.426132e-05
 -1.907585e-05
 1.718564e-06
 1.531363e-05
 -1.902980e-07
 -1.526527e-05
 3.249527e-05
 1.774156e-05
 3.664961e-06
 -1.620134e-05
 -1.605044e-05
 3.773135e-07
 -2.295404e-06
 -8.156361e-07
 -2.055992e-06
 -3.838337e-05
 1.936860e-05
 1.784798e-05
 -1.130706e-06
 7.972336e-07
 -8.743554e-07
 1.482391e-05
 2.525048e-06
 -8.108207e-08
 1.763611e-05
 2.145625e-05
 1.268208e-06
 -9.036499e-09
 -1.911323e-06
 -1.939810e-05
 3.237415e-05
 -2.645325e-06
 2.613248e-06
 2.566855e-06
 1.191154e-06
 -1.906818e-05
 -3.356760e-07
 -1.685004e-05
 1.989567e-07
 8.893114e-08
 0.000000e+00
 0.000000e+00
 4.856152e-07
 1.692252e-06
 1.656944e-05
 -1.984899e-05
 -1.262177e-07
 -6.343590e-07
 1.943013e-06
 1.961845e-05
 1.796182e-06
 -1.983469e-06
 3.332300e-05
 1.328260e-06
 -3.022167e-06
 1.492764e-05
 -1.478879e-05
 -1.553642e-05
 1.428133e-05
 1.597742e-05
 1.469761e-06
 1.452379e-06
 -1.806289e-05
 6.287558e-07
 -2.146115e-07
 -3.380270e-06
 -1.303168e-06
 4.314911e-06
 -1.753115e-05
 -2.637593e-06
 1.886775e-06
 2.079164e-06
 1.647061e-05
 1.565745e-05
 -1.695451e-05
 1.852138e-05
 -6.510732e-07
 -3.562277e-05
 1.163388e-06
 -1.940261e-05
 1.871430e-05
 1.030108e-06
 1.387866e-05
 1.702170e-05
 -1.692743e-05
 1.851493e-05
 -1.964579e-08
 1.683344e-05
 -2.635834e-07
 1.257381e-06
 2.529643e-07
 0.000000e+00
 0.000000e+00
 4.022109e-07
 1.114877e-06
 5.976427e-08
 -3.054130e-06
 5.421840e-07
 5.007141e-08
 -1.711713e-05
 -1.604388e-05
 1.704554e-06
 1.948840e-06
 1.047526e-07
 -1.296774e-06
 6.654860e-07
 3.288511e-05
 -2.529793e-06
 1.494238e-07
 1.609508e-06
 1.681533e-05
 -1.860217e-06
 -1.834093e-05
 -1.635355e-07
 1.708273e-05
 -1.702900e-05
 -1.305636e-06
 -1.026432e-06
 1.766364e-05
 -1.826496e-05
 1.767479e-06
 1.939830e-05
 -1.474202e-05
 5.997624e-07
 -4.304213e-06
 -2.307955e-06
 1.227075e-06
 -2.003365e-06
 -5.885214e-08
 2.880747e-06
 -1.658227e-05
 1.710450e-05
 -1.776350e-05
 8.933004e-07
 -2.349733e-06
 -9.065937e-07
 1.209228e-06
 -1.660663e-05
 -3.185230e-07
 -2.056657e-06
 1.137595e-07
 2.569971e-07
 0.000000e+00
 0.000000e+00
 1.713089e-08
 -1.185249e-07
 4.158781e-07
 -1.738038e-05
 1.690128e-05
 -2.054327e-05
 -8.730316e-07
 2.245244e-06
 2.951802e-06
 -1.590093e-05
 -1.460493e-06
 -1.890712e-05
 -1.504136e-05
 -1.647163e-05
 -8.122662e-07
 2.583988e-06
 3.479907e-05
 -2.515478e-06
 -2.921735e-06
 6.249438e-07
 1.648661e-06
 -1.953753e-06
 1.652020e-05
 -1.753874e-05
 1.894931e-05
 -7.744264e-07
 -2.171969e-06
 2.071919e-05
 4.728304e-07
 -2.234980e-06
 -1.637290e-05
 1.454336e-06
 1.665815e-05
 1.586838e-05
 -6.581507e-07
 8.963761e-07
 -1.468495e-06
 -1.713778e-05
 1.165881e-06
 1.629609e-05
 2.175166e-06
 -1.077607e-06
 -1.510907e-06
 -9.422063e-07
 7.378513e-07
 -1.714110e-05
 -1.079679e-07
 1.055727e-06
 3.399846e-07
 0.000000e+00
 0.000000e+00
 -2.681869e-07
 -8.342553e-07
 -2.918809e-06
 -1.914381e-05
 -1.826748e-05
 -1.806415e-05
 2.025375e-05
 3.076258e-06
 1.945243e-05
 8.829311e-07
 -1.572645e-06
 1.602556e-05
 1.891903e-05
 1.402469e-06
 1.443482e-06
 -1.578651e-05
 -3.724234e-05
 -2.106175e-06
 4.160319e-09
 -6.498976e-07
 -1.609259e-05
 -1.445595e-06
 -2.680554e-06
 -1.711938e-05
 2.011652e-05
 -1.586015e-05
 1.936305e-05
 1.965158e-05
 -1.658852e-06
 -2.948424e-06
 1.715657e-05
 1.633910e-06
 -1.848811e-05
 -3.167082e-06
 -1.072940e-06
 7.487116e-07
 -1.779644e-05
 1.781759e-05
 1.324740e-06
 -3.004393e-06
 -1.193432e-06
 -1.388577e-05
 1.693957e-05
 -3.744524e-06
 -3.370395e-06
 -1.598117e-05
 2.105769e-05
 6.972385e-07
 1.844493e-07
 0.000000e+00
 0.000000e+00
 -3.165212e-07
 -7.106307e-07
 -1.570321e-06
 1.519673e-05
 1.735661e-05
 1.751088e-05
 2.016646e-06
 2.072583e-06
 -1.699963e-05
 -1.818031e-05
 -1.619393e-05
 1.951918e-05
 -2.934332e-07
 -3.299402e-06
 -6.694877e-07
 -4.801432e-07
 1.565924e-06
 3.667565e-05
 -2.075477e-05
 1.950544e-07
 2.603633e-06
 -1.851201e-05
 1.310459e-05
 1.541958e-07
 2.999299e-06
 2.946351e-06
 -1.441890e-05
 -2.657205e-07
 -3.764773e-05
 4.914582e-07
 3.958558e-07
 -2.413157e-06
 -5.081157e-07
 1.769408e-05
 1.682749e-05
 7.451458e-07
 1.684825e-06
 1.936907e-06
 -2.506821e-06
 -2.656100e-06
 3.399273e-05
 -2.086222e-07
 -3.521209e-05
 -7.336037e-07
 1.768786e-05
 3.744229e-05
 1.771452e-06
 -1.554562e-06
 -1.986013e-07
 0.000000e+00
 0.000000e+00
 -2.995075e-07
 -3.828675e-07
 8.564164e-07
 3.426344e-06
 1.732263e-05
 -3.637284e-06
 3.355478e-05
 -4.432308e-07
 -2.409463e-06
 2.503911e-07
 3.331179e-06
 7.394718e-07
 -1.973797e-05
 -1.813954e-05
 1.668738e-05
 -1.743810e-05
 -3.453800e-07
 -1.694858e-05
 -9.290069e-07
 3.499253e-05
 -1.801412e-05
 -1.612969e-05
 1.901534e-05
 3.404516e-05
 1.618063e-05
 -1.170419e-06
 -1.709915e-05
 8.894935e-07
 -1.731720e-05
 1.945395e-05
 -1.703261e-05
 1.135296e-06
 3.065508e-07
 -6.618970e-07
 -2.658738e-06
 -8.667505e-07
 -1.381275e-05
 8.721703e-07
 -1.828179e-05
 1.988321e-05
 1.573626e-05
 -4.017477e-06
 1.666892e-05
 2.007420e-05
 2.368064e-06
 -1.083436e-06
 -1.995499e-05
 -3.319672e-07
 -1.308782e-07
 0.000000e+00
 0.000000e+00
 -2.148284e-07
 -1.622651e-06
 -1.168549e-07
 2.173008e-06
 -3.350437e-05
 1.173397e-06
 1.730534e-05
 -2.293725e-06
 -1.550350e-06
 1.518348e-05
 1.385529e-06
 3.754101e-07
 1.677340e-05
 2.232590e-05
 1.832843e-05
 1.437597e-05
 -1.438150e-06
 3.372319e-05
 -1.484236e-05
 -6.279828e-07
 -2.985057e-06
 3.070156e-06
 4.112346e-06
 6.481934e-08
 -9.729590e-07
 1.167615e-05
 -3.331721e-06
 -4.688561e-08
 -1.622927e-05
 1.778002e-06
 -7.850980e-07
 2.024828e-06
 -1.877250e-05
 -1.779208e-06
 7.977591e-07
 1.744547e-05
 -1.882842e-07
 -3.405700e-05
 1.978883e-06
 3.230575e-06
 -1.791647e-05
 1.659140e-05
 -1.719888e-05
 1.647961e-05
 -1.258231e-06
 -2.508583e-06
 -9.235827e-07
 1.457771e-06
 1.087086e-07
 0.000000e+00
 0.000000e+00
 1.289908e-06
 -1.384700e-06
 1.493050e-05
 -1.844960e-06
 1.843293e-06
 6.085950e-06
 1.582031e-06
 -2.797988e-06
 -1.865692e-05
 -3.096609e-07
 1.646776e-05
 -1.773426e-05
 2.906741e-07
 2.586184e-06
 -3.391602e-05
 -1.666155e-06
 -2.173344e-07
 1.714403e-05
 1.446248e-05
 -1.883316e-06
 -8.728306e-07
 2.431777e-06
 2.390536e-06
 -1.263729e-06
 1.693282e-06
 -3.536302e-05
 3.110070e-05
 -1.847050e-06
 1.861882e-05
 1.453853e-06
 -1.782688e-06
 -1.028521e-06
 -1.902474e-05
 1.899543e-05
 2.102426e-05
 6.945764e-07
 -4.892530e-06
 -6.984627e-07
 2.989882e-06
 1.494088e-06
 2.408318e-06
 1.611314e-06
 -3.995520e-07
 -6.738104e-07
 -3.182643e-07
 -6.488701e-08
 1.605408e-05
 -5.177963e-07
 -1.542420e-07
 0.000000e+00
 0.000000e+00
 1.819179e-06
 -1.595779e-05
 1.709199e-05
 1.570219e-05
 1.770074e-05
 -9.321962e-07
 -1.694882e-05
 -1.921810e-05
 -1.252400e-06
 3.498307e-06
 8.683680e-08
 -8.250432e-08
 1.886375e-05
 1.707171e-05
 -1.699764e-05
 3.902810e-06
 1.869194e-06
 -8.176563e-07
 -1.964418e-05
 -1.124658e-06
 1.495726e-05
 -1.356783e-06
 -1.703999e-05
 -1.776242e-05
 1.641447e-05
 -3.287193e-05
 2.570253e-06
 -3.190549e-06
 -8.785755e-07
 -1.782669e-05
 1.320249e-06
 1.702816e-05
 1.351364e-06
 3.588160e-05
 -2.042376e-06
 -1.984416e-05
 -1.710775e-05
 1.863809e-05
 -1.992196e-07
 2.085148e-05
 1.430883e-06
 -3.153031e-06
 -1.754444e-05
 1.480905e-06
 1.772120e-05
 -1.721430e-05
 -8.888694e-07
 -1.906059e-06
 -4.583837e-07
 0.000000e+00
 0.000000e+00
 1.478143e-07
 -1.498477e-05
 5.142496e-06
 -4.874365e-08
 -5.301951e-06
 -2.125606e-05
 1.840545e-05
 -1.535704e-05
 1.556565e-05
 -1.339079e-06
 -1.548648e-05
 1.864760e-06
 -1.774641e-05
 -9.088384e-07
 -1.803460e-05
 -1.892863e-06
 -3.669268e-05
 -1.756834e-05
 4.724956e-06
 1.276868e-06
 -2.046763e-05
 1.510751e-05
 -2.511980e-06
 -1.128162e-07
 3.547991e-07
 1.040629e-06
 5.763382e-06
 2.014263e-07
 1.468857e-05
 -7.069862e-07
 3.020676e-06
 -1.673786e-05
 3.956574e-07
 -1.715781e-05
 1.398383e-05
 -1.728537e-06
 1.707090e-05
 -1.431175e-05
 1.862306e-06
 1.716470e-05
 -3.562606e-05
 2.091415e-06
 3.519998e-05
 2.357631e-07
 1.181089e-06
 -1.424197e-06
 -9.091620e-07
 -7.020895e-07
 -3.433120e-07