<VTKFile type="UnstructuredGrid"  version="0.1"   >
<UnstructuredGrid>  
<Piece  NumberOfPoints="     2601"  NumberOfCells="     5000">  
<Points>  
<DataArray  type="Float64"  NumberOfComponents="3"  format="ascii">  
 0.000000 0.000000 0.000000 
 0.020000 0.000000 0.000000 
 0.040000 0.000000 0.000000 
 0.060000 0.000000 0.000000 
 0.080000 0.000000 0.000000 
 0.100000 0.000000 0.000000 
 0.120000 0.000000 0.000000 
 0.140000 0.000000 0.000000 
 0.160000 0.000000 0.000000 
 0.180000 0.000000 0.000000 
 0.200000 0.000000 0.000000 
 0.220000 0.000000 0.000000 
 0.240000 0.000000 0.000000 
 0.260000 0.000000 0.000000 
 0.280000 0.000000 0.000000 
 0.300000 0.000000 0.000000 
 0.320000 0.000000 0.000000 
 0.340000 0.000000 0.000000 
 0.360000 0.000000 0.000000 
 0.380000 0.000000 0.000000 
 0.400000 0.000000 0.000000 
 0.420000 0.000000 0.000000 
 0.440000 0.000000 0.000000 
 0.460000 0.000000 0.000000 
 0.480000 0.000000 0.000000 
 0.500000 0.000000 0.000000 
 0.520000 0.000000 0.000000 
 0.540000 0.000000 0.000000 
 0.560000 0.000000 0.000000 
 0.580000 0.000000 0.000000 
 0.600000 0.000000 0.000000 
 0.620000 0.000000 0.000000 
 0.640000 0.000000 0.000000 
 0.660000 0.000000 0.000000 
 0.680000 0.000000 0.000000 
 0.700000 0.000000 0.000000 
 0.720000 0.000000 0.000000 
 0.740000 0.000000 0.000000 
 0.760000 0.000000 0.000000 
 0.780000 0.000000 0.000000 
 0.800000 0.000000 0.000000 
 0.820000 0.000000 0.000000 
 0.840000 0.000000 0.000000 
 0.860000 0.000000 0.000000 
 0.880000 0.000000 0.000000 
 0.900000 0.000000 0.000000 
 0.920000 0.000000 0.000000 
 0.940000 0.000000 0.000000 
 0.960000 0.000000 0.000000 
 0.980000 0.000000 0.000000 
 1.000000 0.000000 0.000000 
 0.000000 0.020000 0.000000 
 0.020000 0.020000 0.000000 
 0.040000 0.020000 0.000000 
 0.060000 0.020000 0.000000 
 0.080000 0.020000 0.000000 
 0.100000 0.020000 0.000000 
 0.120000 0.020000 0.000000 
 0.140000 0.020000 0.000000 
 0.160000 0.020000 0.000000 
 0.180000 0.020000 0.000000 
 0.200000 0.020000 0.000000 
 0.220000 0.020000 0.000000 
 0.240000 0.020000 0.000000 
 0.260000 0.020000 0.000000 
 0.280000 0.020000 0.000000 
 0.300000 0.020000 0.000000 
 0.320000 0.020000 0.000000 
 0.340000 0.020000 0.000000 
 0.360000 0.020000 0.000000 
 0.380000 0.020000 0.000000 
 0.400000 0.020000 0.000000 
 0.420000 0.020000 0.000000 
 0.440000 0.020000 0.000000 
 0.460000 0.020000 0.000000 
 0.480000 0.020000 0.000000 
 0.500000 0.020000 0.000000 
 0.520000 0.020000 0.000000 
 0.540000 0.020000 0.000000 
 0.560000 0.020000 0.000000 
 0.580000 0.020000 0.000000 
 0.600000 0.020000 0.000000 
 0.620000 0.020000 0.000000 
 0.640000 0.020000 0.000000 
 0.660000 0.020000 0.000000 
 0.680000 0.020000 0.000000 
 0.700000 0.020000 0.000000 
 0.720000 0.020000 0.000000 
 0.740000 0.020000 0.000000 
 0.760000 0.020000 0.000000 
 0.780000 0.020000 0.000000 
 0.800000 0.020000 0.000000 
 0.820000 0.020000 0.000000 
 0.840000 0.020000 0.000000 
 0.860000 0.020000 0.000000 
 0.880000 0.020000 0.000000 
 0.900000 0.020000 0.000000 
 0.920000 0.020000 0.000000 
 0.940000 0.020000 0.000000 
 0.960000 0.020000 0.000000 
 0.980000 0.020000 0.000000 
 1.000000 0.020000 0.000000 
 0.000000 0.040000 0.000000 
 0.020000 0.040000 0.000000 
 0.040000 0.040000 0.000000 
 0.060000 0.040000 0.000000 
 0.080000 0.040000 0.000000 
 0.100000 0.040000 0.000000 
 0.120000 0.040000 0.000000 
 0.140000 0.040000 0.000000 
 0.160000 0.040000 0.000000 
 0.180000 0.040000 0.000000 
 0.200000 0.040000 0.000000 
 0.220000 0.040000 0.000000 
 0.240000 0.040000 0.000000 
 0.260000 0.040000 0.000000 
 0.280000 0.040000 0.000000 
 0.300000 0.040000 0.000000 
 0.320000 0.040000 0.000000 
 0.340000 0.040000 0.000000 
 0.360000 0.040000 0.000000 
 0.380000 0.040000 0.000000 
 0.400000 0.040000 0.000000 
 0.420000 0.040000 0.000000 
 0.440000 0.040000 0.000000 
 0.460000 0.040000 0.000000 
 0.480000 0.040000 0.000000 
 0.500000 0.040000 0.000000 
 0.520000 0.040000 0.000000 
 0.540000 0.040000 0.000000 
 0.560000 0.040000 0.000000 
 0.580000 0.040000 0.000000 
 0.600000 0.040000 0.000000 
 0.620000 0.040000 0.000000 
 0.640000 0.040000 0.000000 
 0.660000 0.040000 0.000000 
 0.680000 0.040000 0.000000 
 0.700000 0.040000 0.000000 
 0.720000 0.040000 0.000000 
 0.740000 0.040000 0.000000 
 0.760000 0.040000 0.000000 
 0.780000 0.040000 0.000000 
 0.800000 0.040000 0.000000 
 0.820000 0.040000 0.000000 
 0.840000 0.040000 0.000000 
 0.860000 0.040000 0.000000 
 0.880000 0.040000 0.000000 
 0.900000 0.040000 0.000000 
 0.920000 0.040000 0.000000 
 0.940000 0.040000 0.000000 
 0.960000 0.040000 0.000000 
 0.980000 0.040000 0.000000 
 1.000000 0.040000 0.000000 
 0.000000 0.060000 0.000000 
 0.020000 0.060000 0.000000 
 0.040000 0.060000 0.000000 
 0.060000 0.060000 0.000000 
 0.080000 0.060000 0.000000 
 0.100000 0.060000 0.000000 
 0.120000 0.060000 0.000000 
 0.140000 0.060000 0.000000 
 0.160000 0.060000 0.000000 
 0.180000 0.060000 0.000000 
 0.200000 0.060000 0.000000 
 0.220000 0.060000 0.000000 
 0.240000 0.060000 0.000000 
 0.260000 0.060000 0.000000 
 0.280000 0.060000 0.000000 
 0.300000 0.060000 0.000000 
 0.320000 0.060000 0.000000 
 0.340000 0.060000 0.000000 
 0.360000 0.060000 0.000000 
 0.380000 0.060000 0.000000 
 0.400000 0.060000 0.000000 
 0.420000 0.060000 0.000000 
 0.440000 0.060000 0.000000 
 0.460000 0.060000 0.000000 
 0.480000 0.060000 0.000000 
 0.500000 0.060000 0.000000 
 0.520000 0.060000 0.000000 
 0.540000 0.060000 0.000000 
 0.560000 0.060000 0.000000 
 0.580000 0.060000 0.000000 
 0.600000 0.060000 0.000000 
 0.620000 0.060000 0.000000 
 0.640000 0.060000 0.000000 
 0.660000 0.060000 0.000000 
 0.680000 0.060000 0.000000 
 0.700000 0.060000 0.000000 
 0.720000 0.060000 0.000000 
 0.740000 0.060000 0.000000 
 0.760000 0.060000 0.000000 
 0.780000 0.060000 0.000000 
 0.800000 0.060000 0.000000 
 0.820000 0.060000 0.000000 
 0.840000 0.060000 0.000000 
 0.860000 0.060000 0.000000 
 0.880000 0.060000 0.000000 
 0.900000 0.060000 0.000000 
 0.920000 0.060000 0.000000 
 0.940000 0.060000 0.000000 
 0.960000 0.060000 0.000000 
 0.980000 0.060000 0.000000 
 1.000000 0.060000 0.000000 
 0.000000 0.080000 0.000000 
 0.020000 0.080000 0.000000 
 0.040000 0.080000 0.000000 
 0.060000 0.080000 0.000000 
 0.080000 0.080000 0.000000 
 0.100000 0.080000 0.000000 
 0.120000 0.080000 0.000000 
 0.140000 0.080000 0.000000 
 0.160000 0.080000 0.000000 
 0.180000 0.080000 0.000000 
 0.200000 0.080000 0.000000 
 0.220000 0.080000 0.000000 
 0.240000 0.080000 0.000000 
 0.260000 0.080000 0.000000 
 0.280000 0.080000 0.000000 
 0.300000 0.080000 0.000000 
 0.320000 0.080000 0.000000 
 0.340000 0.080000 0.000000 
 0.360000 0.080000 0.000000 
 0.380000 0.080000 0.000000 
 0.400000 0.080000 0.000000 
 0.420000 0.080000 0.000000 
 0.440000 0.080000 0.000000 
 0.460000 0.080000 0.000000 
 0.480000 0.080000 0.000000 
 0.500000 0.080000 0.000000 
 0.520000 0.080000 0.000000 
 0.540000 0.080000 0.000000 
 0.560000 0.080000 0.000000 
 0.580000 0.080000 0.000000 
 0.600000 0.080000 0.000000 
 0.620000 0.080000 0.000000 
 0.640000 0.080000 0.000000 
 0.660000 0.080000 0.000000 
 0.680000 0.080000 0.000000 
 0.700000 0.080000 0.000000 
 0.720000 0.080000 0.000000 
 0.740000 0.080000 0.000000 
 0.760000 0.080000 0.000000 
 0.780000 0.080000 0.000000 
 0.800000 0.080000 0.000000 
 0.820000 0.080000 0.000000 
 0.840000 0.080000 0.000000 
 0.860000 0.080000 0.000000 
 0.880000 0.080000 0.000000 
 0.900000 0.080000 0.000000 
 0.920000 0.080000 0.000000 
 0.940000 0.080000 0.000000 
 0.960000 0.080000 0.000000 
 0.980000 0.080000 0.000000 
 1.000000 0.080000 0.000000 
 0.000000 0.100000 0.000000 
 0.020000 0.100000 0.000000 
 0.040000 0.100000 0.000000 
 0.060000 0.100000 0.000000 
 0.080000 0.100000 0.000000 
 0.100000 0.100000 0.000000 
 0.120000 0.100000 0.000000 
 0.140000 0.100000 0.000000 
 0.160000 0.100000 0.000000 
 0.180000 0.100000 0.000000 
 0.200000 0.100000 0.000000 
 0.220000 0.100000 0.000000 
 0.240000 0.100000 0.000000 
 0.260000 0.100000 0.000000 
 0.280000 0.100000 0.000000 
 0.300000 0.100000 0.000000 
 0.320000 0.100000 0.000000 
 0.340000 0.100000 0.000000 
 0.360000 0.100000 0.000000 
 0.380000 0.100000 0.000000 
 0.400000 0.100000 0.000000 
 0.420000 0.100000 0.000000 
 0.440000 0.100000 0.000000 
 0.460000 0.100000 0.000000 
 0.480000 0.100000 0.000000 
 0.500000 0.100000 0.000000 
 0.520000 0.100000 0.000000 
 0.540000 0.100000 0.000000 
 0.560000 0.100000 0.000000 
 0.580000 0.100000 0.000000 
 0.600000 0.100000 0.000000 
 0.620000 0.100000 0.000000 
 0.640000 0.100000 0.000000 
 0.660000 0.100000 0.000000 
 0.680000 0.100000 0.000000 
 0.700000 0.100000 0.000000 
 0.720000 0.100000 0.000000 
 0.740000 0.100000 0.000000 
 0.760000 0.100000 0.000000 
 0.780000 0.100000 0.000000 
 0.800000 0.100000 0.000000 
 0.820000 0.100000 0.000000 
 0.840000 0.100000 0.000000 
 0.860000 0.100000 0.000000 
 0.880000 0.100000 0.000000 
 0.900000 0.100000 0.000000 
 0.920000 0.100000 0.000000 
 0.940000 0.100000 0.000000 
 0.960000 0.100000 0.000000 
 0.980000 0.100000 0.000000 
 1.000000 0.100000 0.000000 
 0.000000 0.120000 0.000000 
 0.020000 0.120000 0.000000 
 0.040000 0.120000 0.000000 
 0.060000 0.120000 0.000000 
 0.080000 0.120000 0.000000 
 0.100000 0.120000 0.000000 
 0.120000 0.120000 0.000000 
 0.140000 0.120000 0.000000 
 0.160000 0.120000 0.000000 
 0.180000 0.120000 0.000000 
 0.200000 0.120000 0.000000 
 0.220000 0.120000 0.000000 
 0.240000 0.120000 0.000000 
 0.260000 0.120000 0.000000 
 0.280000 0.120000 0.000000 
 0.300000 0.120000 0.000000 
 0.320000 0.120000 0.000000 
 0.340000 0.120000 0.000000 
 0.360000 0.120000 0.000000 
 0.380000 0.120000 0.000000 
 0.400000 0.120000 0.000000 
 0.420000 0.120000 0.000000 
 0.440000 0.120000 0.000000 
 0.460000 0.120000 0.000000 
 0.480000 0.120000 0.000000 
 0.500000 0.120000 0.000000 
 0.520000 0.120000 0.000000 
 0.540000 0.120000 0.000000 
 0.560000 0.120000 0.000000 
 0.580000 0.120000 0.000000 
 0.600000 0.120000 0.000000 
[...]
<PointData  Scalars="U"> 
<DataArray  type="Float64"  Name="U"  format="ascii"> 
 0.000000e+00
 0.000000e+00
 0.000000e+00
 0.000000e+00
 0.000000e+00
 0.000000e+00
 0.000000e+00
 0.000000e+00
 0.000000e+00
 0.000000e+00
 0.000000e+00
 0.000000e+00
 0.000000e+00
 0.000000e+00
 0.000000e+00
 0.000000e+00
 0.000000e+00
 0.000000e+00
 0.000000e+00
 0.000000e+00
 0.000000e+00
 0.000000e+00
 0.000000e+00
 0.000000e+00
 0.000000e+00
 0.000000e+00
 0.000000e+00
 0.000000e+00
 0.000000e+00
 0.000000e+00
 0.000000e+00
 0.000000e+00
 0.000000e+00
 0.000000e+00
 0.000000e+00
 0.000000e+00
 0.000000e+00
 0.000000e+00
 0.000000e+00
 0.000000e+00
 0.000000e+00
 0.000000e+00
 0.000000e+00
 0.000000e+00
 0.000000e+00
 0.000000e+00
 0.000000e+00
 0.000000e+00
 0.000000e+00
 0.000000e+00
 0.000000e+00
 0.000000e+00
 -1.571924e-06
 1.184232e-06
 -1.060750e-06
 -1.941455e-05
 -2.505093e-06
 -1.313179e-06
 -7.682172e-07
 -1.701288e-05
 1.821868e-05
 -1.262654e-06
 -3.822221e-06
 -4.297430e-06
 -1.722915e-06
 -8.850958e-07
 -7.405934e-07
 -1.474262e-06
 -3.653689e-06
 -3.849563e-06
 -1.103750e-06
 5.024714e-07
 -5.824991e-07
 -1.573641e-06
 -2.435878e-06
 -4.475381e-06
 -6.044702e-07
 1.145713e-07
 -3.359092e-06
 -8.720733e-07
 -1.422318e-05
 -1.247919e-05
 4.641855e-06
 3.671165e-06
 -9.292708e-07
 -1.763791e-05
 -6.184973e-06
 -2.728095e-05
 -2.059305e-06
 4.843393e-07
 1.986414e-05
 2.718641e-09
 -1.515763e-06
 -2.111255e-07
 -1.414682e-07
 -3.483091e-07
 -2.555992e-07
 -7.038698e-08
 -1.508295e-07
 -2.412184e-07
 -1.123863e-07
 0.000000e+00
 0.000000e+00
 -2.226903e-05
 -2.932630e-06
 -2.011845e-05
 -1.554004e-06
 -1.859740e-06
 1.346866e-05
 -1.018587e-06
 1.937890e-05
 9.436438e-07
 -1.511154e-06
 -2.737929e-06
 -3.407891e-06
 -3.231891e-06
 -7.260656e-07
 -8.783969e-07
 -3.014503e-07
 -2.323916e-06
 -2.181361e-06
 -1.078813e-06
 -1.356683e-06
 -1.836670e-05
 -8.751692e-07
 -8.652626e-07
 1.648141e-05
 5.092671e-05
 -2.334430e-06
 -2.177665e-05
 -1.377470e-06
 1.840806e-06
 3.789133e-06
 4.244071e-06
 3.137128e-06
 -7.196279e-07
 1.452295e-05
 -3.834007e-05
 -3.519987e-06
 1.644473e-05
 -4.252560e-07
 -4.429118e-07
 -3.496861e-05
 3.115564e-07
 9.074157e-07
 1.318615e-07
 -1.193154e-06
 -7.371566e-07
 7.045812e-07
 -1.965262e-07
 -8.553122e-07
 -1.537290e-07
 0.000000e+00
 0.000000e+00
 -8.194631e-06
 -4.101397e-06
 -2.440078e-06
 1.079317e-06
 -1.320503e-06
 1.509736e-05
 3.201031e-05
 -1.834998e-06
 -1.191573e-06
 -2.262647e-06
 -2.048294e-05
 -8.723549e-07
 -9.046451e-07
 1.429645e-05
 -2.085742e-05
 -2.336235e-06
 -3.772606e-05
 -8.680141e-07
 -1.616250e-05
 2.267711e-08
 -1.103466e-06
 2.191637e-07
 -2.024623e-07
 1.652996e-06
 -1.918545e-06
 -6.087121e-06
 -1.849868e-06
 3.616171e-05
 -1.199087e-06
 2.147558e-07
 2.114637e-06
 1.243686e-06
 -1.600849e-05
 -2.892085e-06
 -3.892803e-06
 -1.912767e-07
 -1.625710e-06
 -4.429762e-06
 -2.909835e-06
 -3.239495e-07
 -1.466701e-05
 1.906021e-06
 -1.574736e-05
 -6.777452e-07
 -2.026594e-06
 -8.969569e-07
 -1.753791e-05
 3.026009e-07
 1.837081e-07
 0.000000e+00
 0.000000e+00
 -8.025653e-06
 -5.042334e-06
 -3.009460e-06
 3.273428e-07
 -1.681037e-05
 1.715498e-05
 -3.617835e-06
 1.069989e-05
 -4.930610e-06
 -2.089399e-05
 -3.042748e-06
 1.502229e-07
 -1.818684e-05
 -2.129729e-05
 -4.965516e-06
 -2.622187e-06
 -8.617332e-07
 1.947673e-05
 -5.637940e-08
 -1.709988e-05
 -1.715447e-05
 8.797019e-07
 9.752862e-07
 1.653607e-05
 -1.562729e-06
 -1.273388e-06
 1.751598e-07
 -9.044483e-07
 -2.068170e-05
 1.686879e-05
 9.803644e-08
 -5.378545e-07
 -2.370857e-07
 -1.687166e-05
 -3.782202e-07
 -6.140716e-07
 1.622498e-05
 -1.816240e-06
 3.295279e-05
 -2.011271e-06
 1.725981e-05
 1.951797e-06
 2.304509e-06
 -1.793856e-05
 -2.631434e-06
 -2.331583e-06
 3.920168e-07
 2.486177e-06
 5.702857e-07
 0.000000e+00
 0.000000e+00
 -3.256400e-06
 -5.438197e-06
 -5.490071e-06
 -3.150322e-07
 -1.631364e-05
 1.038175e-06
 -2.439169e-06
 -3.027972e-06
 1.176392e-05
 1.283375e-05
 -2.526827e-06
 1.362710e-05
 -2.084842e-05
 -8.541325e-07
 5.048554e-07
 1.583844e-05
 -2.564946e-06
 -1.122991e-06
 -1.904216e-05
 -3.480312e-07
 1.955403e-06
 2.656425e-06
 3.492272e-06
 1.321462e-06
 1.313550e-05
 -2.393821e-06
 -3.607895e-07
 -1.623592e-06
 -1.638829e-06
 -8.926873e-07
 -1.021099e-06
 3.039728e-08
 -2.048937e-06
 4.107438e-07
 3.570272e-06
 5.079339e-07
 -1.653527e-06
 -1.049100e-06
 -1.598031e-06
 -3.466509e-06
 -1.739110e-06
 -2.056987e-06
 -1.896398e-05
 -3.778870e-05
 -1.931036e-07
 1.694085e-06
 1.889511e-05
 6.934561e-07
 3.491960e-07
 0.000000e+00
 0.000000e+00
 -2.431646e-06
 -3.900369e-05
 1.587278e-05
 1.547689e-05
 -1.918903e-05
 2.064469e-07
 -1.988710e-05
 -1.532447e-06
 -1.942600e-05
 -4.791805e-06
 -4.297416e-06
 -5.650390e-06
 -5.596016e-06
 -2.980696e-07
 -5.785809e-07
 -1.844619e-05
 -1.811455e-06
 1.462370e-05
 -5.368556e-07
 2.079982e-06
 8.803464e-07
 -5.549470e-08
 3.339813e-06
 -1.568679e-05
 -1.956471e-05
 1.526660e-05
 -6.624913e-07
 -1.452239e-06
 -5.442464e-07
 1.684690e-05
 1.571777e-05
 -8.054093e-08
 -2.170436e-07
 1.822993e-05
 2.528818e-06
 -1.911585e-05
 -1.964186e-06
 -5.695675e-07
 -6.461198e-07
 -2.061124e-06
 -3.425192e-06
 -9.060939e-07
 -1.149321e-06
 7.086053e-07
 3.791705e-05
 1.893545e-05
 3.138901e-07
 -1.061694e-06
 -8.221598e-08
 0.000000e+00
 0.000000e+00
 -3.300996e-06
 -1.783719e-06
 1.793019e-05
 -2.149409e-05
 -2.753819e-06
 -3.066087e-07
 -9.861699e-07
 1.689312e-05
 -3.029086e-06
 -3.194485e-06
 -3.207530e-06
 -2.008476e-06
 1.334087e-05
 1.447254e-05
 -1.233959e-06
 1.686500e-05
 -1.050112e-06
 2.740144e-07
 1.625360e-05
 6.327435e-07
 7.533093e-07
 -9.336751e-07
 1.641748e-05
 -3.541783e-05
 1.170748e-06
 1.318492e-06
 -7.006794e-08
 1.748427e-06
 1.901918e-05
 -2.050449e-06
 -6.676090e-06
 -4.008620e-06
 -1.628803e-05
 -2.308490e-08
 -1.976581e-05
 -3.366005e-05
 2.004863e-05
 -1.587892e-06
 -3.865897e-06
 -1.944042e-05
 -2.731410e-07
 1.721129e-05
 -1.613149e-05
 2.486466e-06
 1.098687e-06
 -1.916036e-06
 -1.460904e-06
 -4.255594e-07
 -1.822231e-07
 0.000000e+00
 0.000000e+00
 -2.644477e-06
 -2.910206e-06
 -3.165588e-06
 -4.343320e-06
 -3.064017e-07
 1.268146e-06
 6.452763e-07
 -3.210982e-06
 -2.260164e-05
 -5.230503e-06
 -2.528962e-06
 -1.193889e-06
 -1.923672e-05
 1.343451e-05
 -1.944569e-06
 3.730190e-07
 -2.698120e-07
 3.471626e-05
 -1.840869e-05
 1.664060e-05
 -1.885659e-05
 -4.902117e-07
 -3.037410e-06
 -1.221455e-06
 4.018998e-06
 1.863682e-05
 -7.716705e-07
 3.783109e-06
 -1.733964e-05
 -2.188393e-05
 -3.067105e-06
 3.356273e-05
 1.615503e-05
 -1.764454e-06
 -3.908370e-06
 1.751520e-06
 -1.236446e-05
 -1.862057e-05
 -3.086773e-06
 1.381146e-05
 2.071179e-06
 5.254945e-07
 -1.129907e-06
 -1.513188e-05
 1.082463e-06
 1.510416e-08
 -3.208182e-07
 -2.128475e-07
 -8.470466e-08
 0.000000e+00
 0.000000e+00
 -2.190585e-05
 -4.470938e-06
 -2.668580e-06
 -9.286963e-07
 1.670490e-05
 -1.068939e-06
 -1.845530e-05
 -2.207484e-05
 -2.363439e-06
 1.286545e-08
 3.307219e-05
 -2.483540e-06
 1.544748e-05
 -3.830817e-06
 1.496073e-05
 9.646887e-07
 6.558316e-07
 -2.311325e-05
 -4.632730e-07
 4.610627e-06
 -1.477282e-06
 1.685286e-05
 -2.431844e-06
 1.715456e-05
 2.041245e-06
 2.315319e-06
 -2.096840e-06
 1.400562e-05
 -5.509438e-05
 1.207727e-06
 3.403919e-06
 1.738271e-05
 -2.253324e-05
 -8.825127e-06
 -1.946247e-05
 1.963906e-05
 3.853171e-07
 -1.593982e-05
 4.362794e-07
 -9.790839e-07
 3.233903e-05
 -1.931293e-05
 5.027725e-08
 2.267415e-06
 1.852510e-06
 -2.626759e-08
 2.010897e-07
 1.150612e-07
 4.917176e-08
 0.000000e+00
 0.000000e+00
 -4.327099e-06
 -2.770089e-06
 1.423731e-05
 -2.030114e-07
 1.034130e-06
 -3.377503e-06
 -3.979446e-06
 -2.037378e-05
 1.455297e-05
 -1.634428e-05
 1.799064e-06
 -2.151911e-06
 -4.566321e-06
 -4.836217e-06
 3.477192e-05
 -1.268210e-06
 -1.315926e-06
 6.608886e-08
 7.116319e-05
 -1.686261e-05
 -1.636847e-05
 -4.538283e-07
 -2.767574e-06
 1.821884e-05
 -1.549903e-06
 -2.565204e-06
 -3.612177e-05
 -3.668192e-06
 -6.826075e-07
 2.195029e-05
 2.573644e-06
 3.947112e-07
 -3.153170e-06
 -3.262157e-06
 6.915990e-05
 5.971785e-07
 -2.358794e-06
 1.407588e-06
 2.079254e-06
 1.799945e-05
 -3.156888e-06
 1.495507e-05
 1.947759e-05
 -2.885133e-06
 -1.795828e-05
 1.924119e-06
 6.999865e-07
 4.235707e-07
 1.628215e-07
 0.000000e+00
 0.000000e+00
 -1.879356e-05
 -3.193051e-06
 -2.685366e-06
 1.664710e-05
 -2.038790e-07
 -1.814888e-05
 -2.776562e-06
 -1.697005e-06
 1.641291e-05
 3.132607e-05
 -6.044508e-07
 -1.876033e-05
 -2.074226e-05
 1.537991e-05
 1.492426e-05
 -2.136435e-05
 1.036304e-06
 4.400998e-06
 -2.804861e-07
 -4.140099e-06
 3.074574e-06
 1.517134e-06
 -1.844506e-06
 1.350264e-05
 -3.874694e-05
 -3.929014e-06
 -3.600798e-07
 7.672986e-07
 -1.020050e-06
 -1.497011e-05
 -7.983649e-07
 -1.778298e-05
 -1.492557e-05
 3.300343e-06
 1.725033e-05
 -6.407693e-06
 -3.859502e-06
 5.769045e-07
 -1.540720e-05
 1.015921e-06
 -1.549237e-06
 1.449442e-05
 -1.858080e-05
 -1.872151e-05
 3.454786e-05
 1.390705e-06
 4.563402e-07
 1.333085e-06
 1.876615e-07
 0.000000e+00
 0.000000e+00
 3.299838e-07
 1.492977e-06
 3.442293e-05
 1.598234e-05
 -2.479447e-06
 -1.357648e-06
 -1.835721e-05
 8.078780e-07
 8.951594e-07
 -3.640449e-06
 1.181270e-05
 -2.995761e-06
 -7.744529e-07
 1.669003e-05
 1.319053e-05
 1.415425e-05
 1.901343e-05
 1.503999e-06
 -1.443580e-07
 -4.361355e-07
 -1.943373e-05
 -3.455528e-05
 -1.680474e-05
 -2.722998e-06
 1.405735e-05
 -3.604257e-07
 1.566466e-05
 -1.779914e-05
 1.704221e-05
 1.798889e-05
 -1.831850e-05
 1.769064e-05
 2.959400e-06
 -1.379567e-05
 1.396772e-07
 -2.080174e-05
 -2.006360e-06
 1.572403e-05
 -1.846904e-05
 2.579507e-06
 -1.795835e-05
 -3.265859e-06
 1.445605e-05
 -1.424625e-05
 2.584969e-06
 -2.185677e-06
 -6.498182e-07
 -4.643776e-07
 -1.763073e-05
 0.000000e+00
 0.000000e+00
 -1.548059e-05
 3.417415e-06
 -1.975672e-05
 -5.212508e-06
 -2.038624e-05
 -1.984628e-05
 -1.929232e-05
 1.355874e-06
 -1.530707e-05
 -3.414869e-07
 -3.080159e-06
 -3.020257e-06
 -1.901289e-08
 1.751297e-05
 1.423514e-05
 1.476739e-05
 1.546121e-05
 -1.991747e-06
 -4.170167e-07
 -2.637755e-06
 -2.067600e-05
 1.862410e-05
 -1.560393e-05
 1.461200e-09
 -1.879140e-05
 -9.410388e-07
 4.487500e-07
 1.801286e-05
 -9.995697e-07
 -4.812963e-06
 -1.816684e-05
 1.933870e-05
 -1.874962e-05
 -7.138477e-07
 -1.556410e-05
 7.594731e-07
 3.647303e-07
 -1.599288e-06
 -1.459595e-06
 1.904543e-05
 -1.786303e-05
 1.417172e-05
 -1.312800e-06
 2.129911e-05
 1.946286e-06
 -8.511531e-07
 -1.396182e-06
 -2.176082e-06
 -3.745214e-07
 0.000000e+00
 0.000000e+00
 1.872981e-05
 -1.768035e-05
 -2.026904e-05
 1.563554e-05
 -9.909791e-07
 -5.347493e-07
 1.185779e-06
 1.788557e-05
 3.508469e-07
 -1.690264e-05
 -1.667170e-06
 -1.032827e-06
 4.014961e-07
 4.792731e-07
 -1.433240e-06
 1.389528e-05
 -4.739682e-06
 -1.860333e-06
 -2.715752e-06
 -2.175609e-05
 1.013056e-06
 1.298073e-06
 -1.997741e-05
 -9.720584e-07
 -1.551100e-06
 1.127484e-06
 1.644012e-06
 -1.734820e-05
 -1.796776e-05
 1.556967e-05
 1.541620e-05
 1.420232e-06
 -3.940387e-07
 -1.735048e-06
 1.822907e-05
 -1.444043e-05
 -2.401085e-07
 -8.421266e-07
 1.081573e-06
 -2.213646e-07
 -1.755437e-05
 1.996054e-06
 5.127369e-05
 -1.375549e-06
 -3.571249e-05
 -8.818959e-07
 -1.984252e-05
 -3.133939e-07
 6.286488e-07
 0.000000e+00
 0.000000e+00
 -1.860650e-05
 -1.841810e-05
 2.229818e-06
 1.645262e-05
 -3.463074e-06
 -1.705267e-05
 9.299194e-07
 -1.836169e-05
 -2.575795e-06
 -1.803601e-05
 8.521482e-07
 -4.584111e-07
 -2.654773e-07
 -9.855383e-07
 3.187286e-07
 -6.732871e-07
 1.370571e-05
 1.412990e-05
 -1.968747e-05
 1.606817e-05
 1.791452e-05
 -2.058208e-05
 -2.031712e-05
 1.455226e-06
 -2.747754e-07
 1.743868e-05
 -1.951141e-07
 -1.095257e-06
 1.406449e-06
 -1.597319e-05
 -2.495751e-06
 1.612891e-05
 -1.497557e-05
 1.921305e-07
 1.366838e-05
 -2.003816e-05
 -1.545195e-05
 8.882395e-07
 -8.173782e-07
 -2.167439e-05
 -1.954694e-05
 -1.175561e-05
 -1.589791e-05
 -5.214041e-06
 -2.998315e-06
 -1.707912e-05
 1.251401e-06
 2.028295e-05
 3.461099e-07
 0.000000e+00
 0.000000e+00
 -1.485837e-06
 2.468075e-07
 -1.592940e-05
 -1.928328e-05
 -4.234243e-06
 -1.112276e-07
 -1.596410e-05
 1.296181e-06
 -1.283058e-06
 -1.142049e-06
 2.619250e-06
 -2.043496e-06
 -5.631868e-07
 3.767302e-07
 1.741381e-05
 1.696306e-07
 -2.064021e-06
 -6.368669e-06
 -5.206106e-06
 -1.536910e-05
 -1.135206e-06
 -2.067149e-05
 1.722860e-05
 1.983905e-05
 1.137359e-06
 1.642268e-05
 -7.777659e-07
 -2.942927e-06
 -1.817776e-06
 2.663380e-07
 1.752101e-06
 1.769931e-05
 -4.122358e-06
 -3.328108e-05
 4.231922e-07
 1.593253e-05
 1.865715e-05
 1.575828e-06
 -1.257970e-06
 -2.176384e-06
 3.529126e-05
 3.723522e-05
 7.316106e-07
 -2.623175e-06
 -1.982717e-05
 1.791225e-05
 3.499363e-06
 8.683578e-07
 -1.890312e-05
 0.000000e+00
 0.000000e+00
 -9.209517e-07
 -3.342710e-06
 -1.062015e-06
 1.528193e-06
 1.786093e-05
 1.604030e-05
 -2.094659e-07
 2.470387e-06
 -1.716721e-05
 1.662164e-05
 -1.137396e-06
 -1.685905e-05
 3.655973e-05
 1.029320e-06
 1.667732e-05
 -2.930537e-06
 -3.459697e-06
 -3.827730e-06
 1.493987e-05
 3.294898e-05
 -1.791896e-05
 1.374254e-06
 4.349419e-06
 1.535851e-05
 -2.102858e-05
 -1.338779e-06
 -8.858292e-07
 -1.598855e-05
 3.453336e-05
 -1.351397e-06
 1.811040e-05
 -5.835037e-07
 -2.185348e-05
 3.395856e-05
 -1.426699e-05
 1.139943e-06
 -1.852738e-05
 -1.296434e-06
 -1.748401e-05
 1.697635e-06
 1.427832e-06
 -2.701321e-06
 -2.087564e-05
 -2.050805e-06
 1.691665e-05
 -6.957515e-07
 -2.180616e-06
 -1.725974e-05
 8.057935e-07
 0.000000e+00
 0.000000e+00
 -1.747513e-05
 -2.844725e-07
 1.695204e-05
 4.148258e-07
 3.869957e-07
 -2.020119e-06
 -2.296404e-06
 -1.021549e-06
 -1.514050e-05
 1.849350e-06
 -2.540412e-06
 2.005591e-05
 2.897637e-06
 -7.134113e-07
 -1.596697e-06
 -4.450080e-06
 -1.445872e-06
 1.752782e-05
 1.577075e-05
 -4.069525e-06
 1.422103e-05
 4.280393e-07
 7.559635e-07
 -3.564320e-05
 1.631485e-05
 1.792216e-05
 1.599489e-05
 1.822319e-06
 -1.661139e-05
 -2.068787e-06
 -5.382779e-06
 -2.309313e-05
 -1.570279e-05
 7.389891e-07
 -1.776576e-06
 2.122679e-06
 2.850838e-07
 -3.216934e-07
 4.161027e-07
 2.171393e-06
 -4.186927e-07
 -1.649117e-06
 -8.504461e-07
 6.747342e-07
 -7.737091e-07
 -1.741023e-06
 1.622408e-05
 1.810960e-05
 1.072337e-06
 0.000000e+00
 0.000000e+00
 8.813311e-07
 3.469830e-06
 -1.337267e-06
 -2.705494e-06
 -1.453933e-07
 -7.307093e-07
 -1.509190e-06
 -3.000104e-06
 3.213769e-07
 -1.399653e-05
 2.693455e-06
 2.041375e-05
 6.881380e-07
 -3.826095e-06
 -2.054341e-05
 7.450074e-07
 1.756991e-05
 8.439851e-07
 -3.024879e-06
 1.395666e-05
 -2.142917e-06
 -3.212446e-06
 -2.448648e-06
 6.898377e-07
 5.453844e-06
 6.038693e-07
 -3.895618e-06
 -4.064141e-06
 -1.812875e-05
 2.043680e-06
 -1.818320e-05
 4.900785e-05
 1.737521e-05
 -7.756544e-07
 -9.558202e-07
 1.256844e-06
 -1.658407e-05
 3.431922e-07
 5.031471e-07
 1.435645e-06
 3.124794e-06
 1.589457e-05
 -2.689110e-06
 -8.281632e-07
 -1.844721e-06
 4.113006e-07
 7.911963e-07
 -2.890814e-06
 -1.914108e-05
 0.000000e+00
 0.000000e+00
 1.769885e-06
 1.852750e-06
 -1.713289e-05
 1.477095e-05
 -1.628483e-06
 9.705742e-07
 -1.093114e-06
 -2.131375e-06
 1.672423e-05
 1.882717e-06
 4.038578e-06
 1.752911e-06
 -1.688255e-05
 -1.857693e-05
 3.397550e-05
 2.068142e-05
 9.358463e-07
 1.332325e-05
 -1.829879e-05
 1.613042e-05
 -4.298866e-06
 -3.846144e-06
 -2.055029e-06
 -4.583011e-07
 -1.333812e-06
 -3.534276e-05
 -1.794902e-05
 -3.156470e-06
 -1.783213e-06
 2.488170e-06
 -1.511206e-05
 -1.821705e-05
 -5.172773e-06
 -1.968439e-05
 1.640974e-05
 1.415553e-06
 2.058590e-06
 9.939118e-07
 -9.277869e-07
 2.150718e-06
 2.843070e-06
 -3.502883e-05
 1.628661e-05
 -3.955950e-06
 -1.632193e-06
 1.858554e-05
 -4.228213e-07
 -1.583857e-06
 1.677332e-05
 0.000000e+00
 0.000000e+00
 7.807156e-07
 -1.879798e-05
 -1.633850e-05
 -1.624923e-05
 1.577120e-05
 -8.535388e-07
 -1.831508e-05
 -2.504298e-06
 -2.981416e-07
 2.387254e-06
 1.656825e-06
 8.567928e-07
 1.313540e-06
 -1.497276e-05
 4.933840e-07
 1.793056e-07
 -1.806752e-05
 -2.124628e-05
 1.521511e-05
 -1.693908e-05
 -2.618599e-06
 -2.373510e-06
 1.554669e-05
 -3.045538e-06
 -3.073079e-06
 1.625679e-05
 1.848303e-06
 1.242547e-06
 1.726199e-05
 1.708723e-05
 -1.929587e-05
 -3.381448e-06
 -2.270156e-06
 3.793372e-07
 2.133677e-06
 1.819828e-05
 -1.380991e-05
 8.115614e-07
 -2.706491e-06
 1.842205e-05
 -1.583233e-05
 3.451686e-06
 1.749692e-06
 -2.142254e-05
 3.488364e-05
 1.881392e-07
 -2.963593e-06
 -4.822191e-07
 2.264696e-07
 0.000000e+00
 0.000000e+00
 -3.261264e-05
 6.578190e-07
 1.704914e-06
 3.682617e-06
 -3.065542e-07
 -2.015626e-06
 3.131283e-07
 9.271709e-08
 3.324399e-05
 6.217217e-07
 -1.671421e-05
 7.721619e-07
 -1.695438e-05
 -1.503242e-05
 9.492164e-07
 1.643725e-05
 -3.628588e-05
 -2.910305e-07
 -1.162594e-06
 -3.440133e-06
 -1.616849e-05
 2.070313e-06
 -1.223542e-06
 -2.874842e-06
 1.630641e-05
 -3.021070e-06
 -1.866714e-06
 2.751962e-06
 1.626744e-06
 -3.703734e-06
 -2.082238e-05
 -9.035363e-07
 3.455806e-05
 1.703582e-05
 1.709855e-05
 -1.103781e-06
 1.356647e-06
 -3.220430e-05
 -1.182392e-06
 1.476946e-05
 -1.831735e-05
 -1.496903e-05
 -3.295664e-05
 3.344540e-06
 1.826369e-05
 -1.056269e-06
 -1.076530e-06
 1.528978e-05
 -4.602371e-07
 0.000000e+00
 0.000000e+00
 3.927792e-06
 4.246595e-06
 1.622797e-06
 5.666210e-07
 -1.859950e-05
 1.671696e-05
 -1.598248e-05
 1.118654e-06
 -1.402529e-06
 1.198984e-05
 -1.948255e-05
 -4.574252e-07
 -1.580102e-05
 6.310143e-06
 -1.381643e-05
 1.430718e-05
 -2.063046e-05
 1.249299e-06
 -8.892831e-07
 -2.027816e-06
 1.551535e-05
 -1.647046e-05
 -1.625984e-05
 1.822709e-06
 8.492253e-07
 -3.926705e-06
 1.454171e-05
 -3.905276e-07
 -1.772764e-05
 -1.890137e-05
 -2.740592e-07
 2.956822e-06
 1.885846e-05
 -1.342523e-06
 1.672080e-05
 1.475655e-05
 1.557304e-05
 -1.462029e-05
 3.061958e-06
 1.588964e-05
 1.411833e-05
 -6.228374e-07
 1.864273e-06
 -1.349699e-05
 -1.732352e-05
 -1.055153e-06
 -3.516914e-05
 -4.178367e-07
 -7.174255e-07
 0.000000e+00
 0.000000e+00
 1.490774e-05
 -1.743546e-05
 6.752947e-09
 -1.721523e-05
 -1.368784e-06
 -1.374675e-06
 9.058992e-08
 -1.264264e-05
 2.013177e-05
 -5.392740e-06
 1.242635e-05
 -1.297124e-06
 1.782788e-05
 -1.486795e-05
 -3.254859e-05
 -1.560396e-05
 -1.516764e-06
 -1.314334e-10
 -4.718205e-07
 -2.359759e-07
 -1.553271e-06
 1.429303e-05
 2.060585e-06
 2.390920e-06
 -2.044447e-05
 -3.870894e-05
 -5.063726e-07
 -9.264452e-07
 -7.892436e-07
 1.143093e-06
 1.706776e-06
 7.236045e-07
 9.094217e-07
 3.195840e-07
 -3.218457e-07
 -2.093195e-05
 -5.701493e-06
 -1.829823e-05
 -3.107505e-05
 9.245850e-07
 -1.979648e-05
 -4.470239e-06
 -1.922628e-05
 1.924516e-06
 3.073492e-06
 1.884335e-05
 -4.140118e-08
 1.890402e-05
 -7.503649e-09
 0.000000e+00
 0.000000e+00
 1.176335e-05
 -4.947776e-06
 -1.209740e-06
 5.534771e-07
 -1.765040e-05
 1.331310e-05
 -2.686271e-07
 2.570105e-06
 -3.501039e-05
 -3.608335e-05
 1.584890e-05
 -1.461264e-06
 1.681668e-05
 -2.236159e-06
 1.362092e-06
 3.185265e-06
 -1.603609e-05
 5.525866e-09
 -3.450963e-07
 -1.114805e-06
 8.370262e-07
 2.432680e-07
 1.531424e-05
 -2.150388e-05
 -2.065831e-05
 1.839359e-05
 3.619106e-05
 -2.600312e-07
 4.173229e-07
 4.750549e-07
 4.813708e-07
 4.756459e-07
 1.787832e-05
 -2.139392e-08
 -2.293867e-06
 -9.211128e-07
 1.844592e-05
 3.259990e-05
 -1.191036e-06
 2.474013e-06
 3.396656e-08
 1.402964e-06
 3.588252e-05
 1.738697e-05
 1.284961e-06
 5.511172e-07
 -1.953750e-05
 -4.023999e-07
 -5.190496e-07
 0.000000e+00
 0.000000e+00
 -4.870413e-06
 -3.489087e-06
 1.581747e-05
 -4.274720e-06
 -1.865223e-05
 -5.255916e-07
 3.130301e-05
 -1.910354e-05
 -3.557724e-07
 2.104680e-05
 2.660274e-06
 1.578641e-05
 -7.592573e-07
 -9.392496e-07
 1.270505e-06
 8.022554e-07
 -5.970442e-07
 1.438866e-06
 -8.673985e-07
 2.264252e-08
 2.031534e-05
 1.098714e-06
 -2.962651e-06
 -1.180501e-06
 3.780347e-05
 2.067078e-05
 1.520742e-05
 1.061413e-05
 -1.300522e-07
 1.166102e-06
 -7.846032e-07
 -6.354435e-08
 -6.434204e-08
 5.560724e-07
 -1.248781e-07
 1.806921e-05
 2.068740e-06
 -1.877148e-05
 -4.034977e-06
 1.413552e-05
 -1.539204e-05
 2.283566e-05