<VTKFile type="UnstructuredGrid"  version="0.1"   >
<UnstructuredGrid>  
<Piece  NumberOfPoints="     2601"  NumberOfCells="     5000">  
<Points>  
<DataArray  type="Float64"  NumberOfComponents="3"  format="ascii">  
 0.000000 0.000000 0.000000 
 0.020000 0.000000 0.000000 
 0.040000 0.000000 0.000000 
 0.060000 0.000000 0.000000 
 0.080000 0.000000 0.000000 
 0.100000 0.000000 0.000000 
 0.120000 0.000000 0.000000 
 0.140000 0.000000 0.000000 
 0.160000 0.000000 0.000000 
 0.180000 0.000000 0.000000 
 0.200000 0.000000 0.000000 
 0.220000 0.000000 0.000000 
 0.240000 0.000000 0.000000 
 0.260000 0.000000 0.000000 
 0.280000 0.000000 0.000000 
 0.300000 0.000000 0.000000 
 0.320000 0.000000 0.000000 
 0.340000 0.000000 0.000000 
 0.360000 0.000000 0.000000 
 0.380000 0.000000 0.000000 
 0.400000 0.000000 0.000000 
 0.420000 0.000000 0.000000 
 0.440000 0.000000 0.000000 
 0.460000 0.000000 0.000000 
 0.480000 0.000000 0.000000 
 0.500000 0.000000 0.000000 
 0.520000 0.000000 0.000000 
 0.540000 0.000000 0.000000 
 0.560000 0.000000 0.000000 
 0.580000 0.000000 0.000000 
 0.600000 0.000000 0.000000 
 0.620000 0.000000 0.000000 
 0.640000 0.000000 0.000000 
 0.660000 0.000000 0.000000 
 0.680000 0.000000 0.000000 
 0.700000 0.000000 0.000000 
 0.720000 0.000000 0.000000 
 0.740000 0.000000 0.000000 
 0.760000 0.000000 0.000000 
 0.780000 0.000000 0.000000 
 0.800000 0.000000 0.000000 
 0.820000 0.000000 0.000000 
 0.840000 0.000000 0.000000 
 0.860000 0.000000 0.000000 
 0.880000 0.000000 0.000000 
 0.900000 0.000000 0.000000 
 0.920000 0.000000 0.000000 
 0.940000 0.000000 0.000000 
 0.960000 0.000000 0.000000 
 0.980000 0.000000 0.000000 
 1.000000 0.000000 0.000000 
 0.000000 0.020000 0.000000 
 0.020000 0.020000 0.000000 
 0.040000 0.020000 0.000000 
 0.060000 0.020000 0.000000 
 0.080000 0.020000 0.000000 
 0.100000 0.020000 0.000000 
 0.120000 0.020000 0.000000 
 0.140000 0.020000 0.000000 
 0.160000 0.020000 0.000000 
 0.180000 0.020000 0.000000 
 0.200000 0.020000 0.000000 
 0.220000 0.020000 0.000000 
 0.240000 0.020000 0.000000 
 0.260000 0.020000 0.000000 
 0.280000 0.020000 0.000000 
 0.300000 0.020000 0.000000 
 0.320000 0.020000 0.000000 
 0.340000 0.020000 0.000000 
 0.360000 0.020000 0.000000 
 0.380000 0.020000 0.000000 
 0.400000 0.020000 0.000000 
 0.420000 0.020000 0.000000 
 0.440000 0.020000 0.000000 
 0.460000 0.020000 0.000000 
 0.480000 0.020000 0.000000 
 0.500000 0.020000 0.000000 
 0.520000 0.020000 0.000000 
 0.540000 0.020000 0.000000 
 0.560000 0.020000 0.000000 
 0.580000 0.020000 0.000000 
 0.600000 0.020000 0.000000 
 0.620000 0.020000 0.000000 
 0.640000 0.020000 0.000000 
 0.660000 0.020000 0.000000 
 0.680000 0.020000 0.000000 
 0.700000 0.020000 0.000000 
 0.720000 0.020000 0.000000 
 0.740000 0.020000 0.000000 
 0.760000 0.020000 0.000000 
 0.780000 0.020000 0.000000 
 0.800000 0.020000 0.000000 
 0.820000 0.020000 0.000000 
 0.840000 0.020000 0.000000 
 0.860000 0.020000 0.000000 
 0.880000 0.020000 0.000000 
 0.900000 0.020000 0.000000 
 0.920000 0.020000 0.000000 
 0.940000 0.020000 0.000000 
 0.960000 0.020000 0.000000 
 0.980000 0.020000 0.000000 
 1.000000 0.020000 0.000000 
 0.000000 0.040000 0.000000 
 0.020000 0.040000 0.000000 
 0.040000 0.040000 0.000000 
 0.060000 0.040000 0.000000 
 0.080000 0.040000 0.000000 
 0.100000 0.040000 0.000000 
 0.120000 0.040000 0.000000 
 0.140000 0.040000 0.000000 
 0.160000 0.040000 0.000000 
 0.180000 0.040000 0.000000 
 0.200000 0.040000 0.000000 
 0.220000 0.040000 0.000000 
 0.240000 0.040000 0.000000 
 0.260000 0.040000 0.000000 
 0.280000 0.040000 0.000000 
 0.300000 0.040000 0.000000 
 0.320000 0.040000 0.000000 
 0.340000 0.040000 0.000000 
 0.360000 0.040000 0.000000 
 0.380000 0.040000 0.000000 
 0.400000 0.040000 0.000000 
 0.420000 0.040000 0.000000 
 0.440000 0.040000 0.000000 
 0.460000 0.040000 0.000000 
 0.480000 0.040000 0.000000 
 0.500000 0.040000 0.000000 
 0.520000 0.040000 0.000000 
 0.540000 0.040000 0.000000 
 0.560000 0.040000 0.000000 
 0.580000 0.040000 0.000000 
 0.600000 0.040000 0.000000 
 0.620000 0.040000 0.000000 
 0.640000 0.040000 0.000000 
 0.660000 0.040000 0.000000 
 0.680000 0.040000 0.000000 
 0.700000 0.040000 0.000000 
 0.720000 0.040000 0.000000 
 0.740000 0.040000 0.000000 
 0.760000 0.040000 0.000000 
 0.780000 0.040000 0.000000 
 0.800000 0.040000 0.000000 
 0.820000 0.040000 0.000000 
 0.840000 0.040000 0.000000 
 0.860000 0.040000 0.000000 
 0.880000 0.040000 0.000000 
 0.900000 0.040000 0.000000 
 0.920000 0.040000 0.000000 
 0.940000 0.040000 0.000000 
 0.960000 0.040000 0.000000 
 0.980000 0.040000 0.000000 
 1.000000 0.040000 0.000000 
 0.000000 0.060000 0.000000 
 0.020000 0.060000 0.000000 
 0.040000 0.060000 0.000000 
 0.060000 0.060000 0.000000 
 0.080000 0.060000 0.000000 
 0.100000 0.060000 0.000000 
 0.120000 0.060000 0.000000 
 0.140000 0.060000 0.000000 
 0.160000 0.060000 0.000000 
 0.180000 0.060000 0.000000 
 0.200000 0.060000 0.000000 
 0.220000 0.060000 0.000000 
 0.240000 0.060000 0.000000 
 0.260000 0.060000 0.000000 
 0.280000 0.060000 0.000000 
 0.300000 0.060000 0.000000 
 0.320000 0.060000 0.000000 
 0.340000 0.060000 0.000000 
 0.360000 0.060000 0.000000 
 0.380000 0.060000 0.000000 
 0.400000 0.060000 0.000000 
 0.420000 0.060000 0.000000 
 0.440000 0.060000 0.000000 
 0.460000 0.060000 0.000000 
 0.480000 0.060000 0.000000 
 0.500000 0.060000 0.000000 
 0.520000 0.060000 0.000000 
 0.540000 0.060000 0.000000 
 0.560000 0.060000 0.000000 
 0.580000 0.060000 0.000000 
 0.600000 0.060000 0.000000 
 0.620000 0.060000 0.000000 
 0.640000 0.060000 0.000000 
 0.660000 0.060000 0.000000 
 0.680000 0.060000 0.000000 
 0.700000 0.060000 0.000000 
 0.720000 0.060000 0.000000 
 0.740000 0.060000 0.000000 
 0.760000 0.060000 0.000000 
 0.780000 0.060000 0.000000 
 0.800000 0.060000 0.000000 
 0.820000 0.060000 0.000000 
 0.840000 0.060000 0.000000 
 0.860000 0.060000 0.000000 
 0.880000 0.060000 0.000000 
 0.900000 0.060000 0.000000 
 0.920000 0.060000 0.000000 
 0.940000 0.060000 0.000000 
 0.960000 0.060000 0.000000 
 0.980000 0.060000 0.000000 
 1.000000 0.060000 0.000000 
 0.000000 0.080000 0.000000 
 0.020000 0.080000 0.000000 
 0.040000 0.080000 0.000000 
 0.060000 0.080000 0.000000 
 0.080000 0.080000 0.000000 
 0.100000 0.080000 0.000000 
 0.120000 0.080000 0.000000 
 0.140000 0.080000 0.000000 
 0.160000 0.080000 0.000000 
 0.180000 0.080000 0.000000 
 0.200000 0.080000 0.000000 
 0.220000 0.080000 0.000000 
 0.240000 0.080000 0.000000 
 0.260000 0.080000 0.000000 
 0.280000 0.080000 0.000000 
 0.300000 0.080000 0.000000 
 0.320000 0.080000 0.000000 
 0.340000 0.080000 0.000000 
 0.360000 0.080000 0.000000 
 0.380000 0.080000 0.000000 
 0.400000 0.080000 0.000000 
 0.420000 0.080000 0.000000 
 0.440000 0.080000 0.000000 
 0.460000 0.080000 0.000000 
 0.480000 0.080000 0.000000 
 0.500000 0.080000 0.000000 
 0.520000 0.080000 0.000000 
 0.540000 0.080000 0.000000 
 0.560000 0.080000 0.000000 
 0.580000 0.080000 0.000000 
 0.600000 0.080000 0.000000 
 0.620000 0.080000 0.000000 
 0.640000 0.080000 0.000000 
 0.660000 0.080000 0.000000 
 0.680000 0.080000 0.000000 
 0.700000 0.080000 0.000000 
 0.720000 0.080000 0.000000 
 0.740000 0.080000 0.000000 
 0.760000 0.080000 0.000000 
 0.780000 0.080000 0.000000 
 0.800000 0.080000 0.000000 
 0.820000 0.080000 0.000000 
 0.840000 0.080000 0.000000 
 0.860000 0.080000 0.000000 
 0.880000 0.080000 0.000000 
 0.900000 0.080000 0.000000 
 0.920000 0.080000 0.000000 
 0.940000 0.080000 0.000000 
 0.960000 0.080000 0.000000 
 0.980000 0.080000 0.000000 
 1.000000 0.080000 0.000000 
 0.000000 0.100000 0.000000 
 0.020000 0.100000 0.000000 
 0.040000 0.100000 0.000000 
 0.060000 0.100000 0.000000 
 0.080000 0.100000 0.000000 
 0.100000 0.100000 0.000000 
 0.120000 0.100000 0.000000 
 0.140000 0.100000 0.000000 
 0.160000 0.100000 0.000000 
 0.180000 0.100000 0.000000 
 0.200000 0.100000 0.000000 
 0.220000 0.100000 0.000000 
 0.240000 0.100000 0.000000 
 0.260000 0.100000 0.000000 
 0.280000 0.100000 0.000000 
 0.300000 0.100000 0.000000 
 0.320000 0.100000 0.000000 
 0.340000 0.100000 0.000000 
 0.360000 0.100000 0.000000 
 0.380000 0.100000 0.000000 
 0.400000 0.100000 0.000000 
 0.420000 0.100000 0.000000 
 0.440000 0.100000 0.000000 
 0.460000 0.100000 0.000000 
 0.480000 0.100000 0.000000 
 0.500000 0.100000 0.000000 
 0.520000 0.100000 0.000000 
 0.540000 0.100000 0.000000 
 0.560000 0.100000 0.000000 
 0.580000 0.100000 0.000000 
 0.600000 0.100000 0.000000 
 0.620000 0.100000 0.000000 
 0.640000 0.100000 0.000000 
 0.660000 0.100000 0.000000 
 0.680000 0.100000 0.000000 
 0.700000 0.100000 0.000000 
 0.720000 0.100000 0.000000 
 0.740000 0.100000 0.000000 
 0.760000 0.100000 0.000000 
 0.780000 0.100000 0.000000 
 0.800000 0.100000 0.000000 
 0.820000 0.100000 0.000000 
 0.840000 0.100000 0.000000 
 0.860000 0.100000 0.000000 
 0.880000 0.100000 0.000000 
 0.900000 0.100000 0.000000 
 0.920000 0.100000 0.000000 
 0.940000 0.100000 0.000000 
 0.960000 0.100000 0.000000 
 0.980000 0.100000 0.000000 
 1.000000 0.100000 0.000000 
 0.000000 0.120000 0.000000 
 0.020000 0.120000 0.000000 
 0.040000 0.120000 0.000000 
 0.060000 0.120000 0.000000 
 0.080000 0.120000 0.000000 
 0.100000 0.120000 0.000000 
 0.120000 0.120000 0.000000 
 0.140000 0.120000 0.000000 
 0.160000 0.120000 0.000000 
 0.180000 0.120000 0.000000 
 0.200000 0.120000 0.000000 
 0.220000 0.120000 0.000000 
 0.240000 0.120000 0.000000 
 0.260000 0.120000 0.000000 
 0.280000 0.120000 0.000000 
 0.300000 0.120000 0.000000 
 0.320000 0.120000 0.000000 
 0.340000 0.120000 0.000000 
 0.360000 0.120000 0.000000 
 0.380000 0.120000 0.000000 
 0.400000 0.120000 0.000000 
 0.420000 0.120000 0.000000 
 0.440000 0.120000 0.000000 
 0.460000 0.120000 0.000000 
 0.480000 0.120000 0.000000 
 0.500000 0.120000 0.000000 
 0.520000 0.120000 0.000000 
 0.540000 0.120000 0.000000 
 0.560000 0.120000 0.000000 
 0.580000 0.120000 0.000000 
 0.600000 0.120000 0.000000 
[...]
<PointData  Scalars="U"> 
<DataArray  type="Float64"  Name="U"  format="ascii"> 
 0.000000e+00
 0.000000e+00
 0.000000e+00
 0.000000e+00
 0.000000e+00
 0.000000e+00
 0.000000e+00
 0.000000e+00
 0.000000e+00
 0.000000e+00
 0.000000e+00
 0.000000e+00
 0.000000e+00
 0.000000e+00
 0.000000e+00
 0.000000e+00
 0.000000e+00
 0.000000e+00
 0.000000e+00
 0.000000e+00
 0.000000e+00
 0.000000e+00
 0.000000e+00
 0.000000e+00
 0.000000e+00
 0.000000e+00
 0.000000e+00
 0.000000e+00
 0.000000e+00
 0.000000e+00
 0.000000e+00
 0.000000e+00
 0.000000e+00
 0.000000e+00
 0.000000e+00
 0.000000e+00
 0.000000e+00
 0.000000e+00
 0.000000e+00
 0.000000e+00
 0.000000e+00
 0.000000e+00
 0.000000e+00
 0.000000e+00
 0.000000e+00
 0.000000e+00
 0.000000e+00
 0.000000e+00
 0.000000e+00
 0.000000e+00
 0.000000e+00
 0.000000e+00
 -3.898224e-06
 -8.067431e-07
 8.575929e-07
 3.567611e-06
 3.539580e-06
 1.814525e-05
 -1.634234e-05
 -1.382717e-05
 1.992053e-05
 -5.270390e-07
 9.010173e-07
 -1.615976e-05
 7.172541e-07
 3.016002e-07
 2.561881e-07
 -5.711825e-07
 1.188712e-06
 2.144417e-05
 3.863975e-06
 -2.070435e-06
 -5.676801e-06
 -9.134663e-07
 7.995791e-07
 -3.436771e-07
 3.032697e-06
 4.859175e-06
 -1.920524e-05
 -9.238516e-07
 5.434778e-06
 8.822070e-06
 1.226141e-06
 -3.505786e-05
 -8.022516e-08
 -1.792202e-06
 -4.551075e-06
 9.890977e-06
 -6.318283e-06
 -5.375764e-06
 1.202356e-05
 -3.585070e-06
 -3.478885e-06
 -4.448081e-06
 -4.495207e-06
 -1.812804e-05
 1.323927e-06
 3.530335e-08
 -2.740501e-07
 -3.004226e-07
 -1.626497e-07
 0.000000e+00
 0.000000e+00
 1.044691e-05
 -4.025141e-06
 8.479851e-07
 3.408254e-06
 2.615864e-06
 -7.648699e-07
 -1.273763e-06
 4.240844e-06
 3.454210e-06
 1.693634e-05
 1.664016e-05
 4.372350e-07
 2.775894e-06
 -4.297476e-07
 1.081331e-06
 1.473183e-06
 1.748935e-05
 1.351688e-06
 7.766173e-07
 -1.800695e-05
 2.927123e-06
 3.469803e-05
 -2.979690e-06
 -9.244853e-08
 1.864684e-05
 5.970573e-07
 -1.666139e-05
 3.620238e-05
 3.456678e-06
 2.906931e-06
 -3.612001e-05
 -6.275881e-07
 -1.544387e-05
 6.988137e-07
 -2.170226e-06
 -4.601185e-06
 -5.628062e-06
 -3.146405e-06
 -4.622730e-06
 -6.214720e-06
 -3.898514e-06
 -1.980298e-05
 -6.214568e-07
 3.435582e-05
 -1.083885e-08
 -4.629669e-07
 -7.974012e-07
 -7.679527e-07
 -3.924411e-07
 0.000000e+00
 0.000000e+00
 -5.333300e-06
 -5.561748e-06
 1.566549e-05
 -1.719753e-05
 -1.706663e-05
 -1.699672e-05
 1.276146e-06
 3.564270e-06
 3.959023e-06
 -3.527699e-07
 -2.078771e-06
 -7.737869e-07
 1.085048e-07
 -1.701648e-05
 1.842039e-05
 -1.580070e-05
 8.031634e-07
 1.711445e-05
 5.462077e-07
 2.191137e-06
 1.999655e-05
 -5.387479e-05
 -4.295408e-06
 2.657690e-07
 2.090542e-06
 -1.022596e-06
 1.901697e-06
 1.709292e-06
 1.642680e-05
 -1.769084e-05
 -4.873557e-07
 1.953973e-06
 2.129407e-05
 2.004511e-05
 -1.075100e-06
 1.323245e-05
 -6.379813e-06
 -5.192837e-06
 -2.147599e-05
 -4.713370e-06
 -4.917682e-06
 -9.000157e-07
 3.804359e-06
 -1.773426e-05
 -2.538379e-06
 -1.033629e-07
 -1.765638e-06
 -1.663776e-06
 -5.405536e-07
 0.000000e+00
 0.000000e+00
 -3.244877e-06
 -1.701987e-06
 1.396145e-05
 -4.238618e-06
 -7.832237e-07
 5.424006e-07
 2.725219e-06
 1.928514e-06
 -1.590505e-05
 -1.613454e-05
 1.802707e-05
 -3.104913e-07
 -2.211437e-06
 5.430028e-07
 1.789359e-06
 -5.940807e-08
 1.076667e-06
 -3.879334e-07
 2.860478e-06
 2.863296e-06
 -2.100459e-05
 -1.412154e-06
 2.613349e-06
 1.679984e-05
 -1.418787e-07
 -1.815280e-05
 1.958543e-06
 4.618562e-06
 1.800092e-05
 -1.262779e-06
 2.177870e-06
 2.128568e-05
 2.093960e-05
 -1.795481e-05
 -9.417812e-07
 -2.197374e-05
 -8.824823e-06
 -8.055189e-06
 -1.884848e-06
 1.051568e-06
 1.486601e-05
 1.519606e-05
 -1.298712e-06
 -1.811059e-05
 -2.990377e-07
 -1.895983e-05
 -1.855273e-05
 -6.529233e-07
 -2.913323e-07
 0.000000e+00
 0.000000e+00
 -1.952552e-05
 1.607407e-05
 -1.892865e-05
 1.439586e-05
 -9.487409e-07
 1.848027e-05
 1.721838e-05
 -2.738517e-06
 -3.002907e-07
 3.615192e-06
 3.358240e-06
 3.816229e-07
 -9.583361e-07
 1.564919e-05
 4.469797e-07
 1.384660e-06
 -1.325302e-06
 1.687952e-05
 1.882616e-05
 -3.636644e-05
 -1.865865e-05
 9.687395e-07
 -1.759641e-05
 9.044858e-08
 -2.179366e-06
 -5.707055e-07
 2.090426e-05
 2.801338e-06
 -1.557523e-05
 5.359187e-07
 1.451386e-06
 1.477290e-06
 -1.690610e-05
 -1.972649e-05
 -2.034138e-05
 -3.617323e-05
 -1.682356e-06
 1.316823e-05
 3.020482e-05
 -2.035981e-05
 -1.774503e-05
 -1.879645e-06
 -2.037585e-06
 -3.595639e-08
 -1.468410e-06
 -3.798332e-06
 8.975583e-08
 4.986437e-07
 2.809862e-08
 0.000000e+00
 0.000000e+00
 -1.737857e-05
 1.855583e-05
 -2.955183e-06
 -1.259737e-06
 -8.029363e-07
 -1.206996e-08
 -2.040014e-05
 -2.025352e-06
 1.652465e-05
 7.379280e-08
 -1.649917e-07
 -1.723286e-05
 -1.577772e-05
 6.670257e-07
 1.722221e-05
 1.107313e-06
 2.759962e-06
 3.693076e-05
 1.471850e-05
 -1.917883e-06
 1.664508e-05
 -1.177460e-06
 -1.670141e-07
 1.900621e-05
 1.216737e-06
 1.804769e-05
 1.774003e-05
 8.549728e-07
 2.095033e-05
 1.797290e-06
 -1.053414e-06
 -2.009788e-06
 -1.969624e-06
 -3.565954e-05
 -1.610721e-06
 6.931072e-08
 -1.387463e-05
 -3.636728e-08
 -5.441397e-06
 1.087439e-05
 1.688766e-05
 -9.128076e-07
 -1.883754e-06
 -1.819876e-05
 -1.714290e-05
 -6.607541e-07
 1.652497e-05
 4.511172e-08
 1.758513e-05
 0.000000e+00
 0.000000e+00
 1.599446e-05
 -1.244583e-06
 -1.940667e-05
 1.582793e-05
 -1.773333e-06
 -1.287263e-06
 -3.641143e-07
 1.910875e-05
 -3.733213e-07
 1.434156e-05
 -1.807759e-06
 1.579613e-05
 4.771486e-07
 2.473331e-06
 1.773375e-06
 6.248800e-07
 -4.896696e-08
 -1.701173e-05
 -1.988828e-05
 -2.076767e-05
 -3.555474e-05
 1.746850e-05
 1.099408e-06
 1.697168e-05
 -3.134812e-07
 2.932435e-06
 1.643504e-05
 1.883636e-05
 1.523153e-06
 -1.840116e-05
 -1.246874e-06
 -4.648397e-06
 -2.884250e-06
 2.510525e-06
 9.594676e-07
 -3.103292e-06
 6.646461e-07
 -1.577851e-05
 -2.209223e-06
 -3.589892e-07
 1.682735e-05
 -2.490569e-06
 1.383099e-05
 -3.162914e-06
 4.352956e-07
 -1.545705e-05
 5.549086e-07
 -2.666143e-08
 2.344673e-07
 0.000000e+00
 0.000000e+00
 -6.725104e-06
 -7.273649e-06
 -1.812651e-06
 -1.908465e-05
 -9.396753e-07
 3.642272e-07
 2.053215e-07
 1.384228e-06
 5.260360e-07
 -1.403084e-06
 1.648709e-05
 -1.765526e-06
 1.669429e-05
 1.863023e-05
 1.763674e-05
 1.567628e-06
 -2.187077e-07
 3.313065e-05
 -1.324284e-06
 -2.535087e-06
 1.919123e-05
 3.553809e-06
 3.499210e-07
 -3.867465e-07
 1.791244e-05
 2.093005e-05
 3.048970e-06
 3.447022e-05
 -2.147897e-05
 -2.118991e-06
 -1.709269e-05
 5.099670e-07
 3.383824e-05
 -1.115279e-06
 -3.774898e-05
 -2.628613e-06
 -1.757434e-06
 -1.938927e-05
 -1.644932e-05
 1.981301e-05
 -1.839886e-05
 -1.995116e-05
 -1.892724e-05
 -2.626313e-06
 -1.569235e-06
 3.535038e-07
 1.980924e-06
 9.382782e-07
 4.513491e-07
 0.000000e+00
 0.000000e+00
 -4.107596e-05
 1.199646e-05
 -4.007970e-06
 -1.241050e-06
 1.699007e-05
 -1.641170e-05
 3.318676e-07
 -8.348538e-07
 -1.793087e-05
 -1.713586e-05
 1.749880e-07
 -1.655460e-05
 1.615350e-05
 -1.847720e-05
 -7.747354e-07
 -1.672180e-06
 -1.508004e-05
 4.077625e-07
 -3.115158e-06
 -1.149233e-06
 1.738958e-05
 -1.474501e-06
 -6.653623e-07
 4.616407e-07
 2.019511e-05
 1.183238e-06
 1.142720e-06
 -1.971809e-05
 -2.244962e-05
 -9.956415e-07
 6.930205e-10
 2.778859e-06
 -1.684095e-05
 -5.054124e-06
 -2.022252e-05
 1.769516e-05
 -3.482338e-06
 -2.953069e-06
 1.832823e-05
 5.998064e-07
 -2.159002e-05
 -2.908427e-07
 3.171761e-06
 5.318608e-07
 -1.620873e-06
 5.369593e-07
 7.343704e-07
 2.574322e-06
 6.554183e-07
 0.000000e+00
 0.000000e+00
 9.578967e-06
 -3.781358e-05
 1.457270e-05
 -1.921604e-05
 -2.867015e-06
 -5.910635e-07
 -1.551309e-05
 -9.693991e-07
 -2.345296e-06
 -1.359956e-07
 6.280909e-07
 2.272200e-06
 -1.557550e-05
 3.458512e-05
 1.490654e-06
 1.714360e-05
 1.872188e-05
 9.356718e-07
 -8.414902e-07
 1.961255e-06
 1.768751e-05
 -3.041705e-06
 1.683603e-05
 2.104170e-05
 3.672895e-05
 -3.661141e-06
 -3.452578e-06
 -2.063091e-05
 -1.088024e-07
 9.933929e-07
 -2.676165e-07
 -3.954803e-07
 1.002308e-06
 -1.691261e-05
 -1.141956e-06
 -4.610193e-07
 -1.603847e-06
 1.730891e-05
 1.635376e-05
 1.446065e-05
 -2.236517e-07
 3.546467e-05
 -8.147762e-07
 -1.811466e-05
 -1.291219e-06
 -3.196789e-06
 -1.762880e-05
 1.738802e-06
 -3.458452e-05
 0.000000e+00
 0.000000e+00
 -5.533042e-06
 1.560657e-05
 1.732648e-05
 -2.563477e-06
 1.626599e-05
 1.741344e-05
 7.709384e-07
 5.685769e-07
 -6.125490e-08
 1.771965e-05
 1.796426e-05
 1.743084e-05
 7.692979e-07
 1.803800e-06
 1.087315e-06
 8.267853e-07
 -2.329014e-06
 -1.947234e-05
 -1.922556e-07
 1.692622e-06
 -1.608136e-05
 4.368299e-07
 1.874623e-05
 1.880653e-05
 -2.044129e-05
 -2.690993e-05
 -3.484743e-06
 2.096194e-06
 1.857317e-05
 -1.169305e-06
 -1.924255e-06
 1.696895e-07
 -5.447201e-07
 -1.657325e-05
 -1.690925e-05
 -8.853062e-07
 3.470869e-06
 8.872762e-07
 -2.875143e-06
 -2.849400e-06
 -1.838704e-06
 -1.791901e-05
 -1.789839e-06
 -1.045280e-06
 -7.431789e-07
 -1.979261e-06
 3.497653e-05
 -7.197111e-07
 -9.887846e-07
 0.000000e+00
 0.000000e+00
 1.794316e-05
 1.304634e-06
 -1.934709e-06
 -2.136370e-06
 -7.771553e-10
 1.600126e-05
 -1.897208e-05
 1.157268e-06
 1.278467e-06
 6.707899e-07
 1.080461e-06
 -9.579560e-07
 -1.874178e-06
 1.734677e-05
 2.143408e-07
 -1.633819e-05
 -1.312696e-06
 -1.709209e-06
 -1.168655e-06
 1.626634e-06
 3.084633e-06
 3.720312e-06
 2.545137e-07
 -2.964692e-06
 -2.154994e-05
 -1.544166e-06
 4.993363e-05
 -5.278841e-07
 -1.683355e-05
 -1.809447e-06
 -1.174227e-06
 1.499227e-05
 -1.884459e-05
 -2.428550e-06
 -3.613351e-05
 2.219920e-06
 2.057783e-06
 -3.397405e-05
 -1.451180e-06
 -1.226868e-06
 -7.466933e-07
 1.898249e-05
 1.303965e-07
 -1.853460e-05
 2.991010e-07
 -1.450899e-06
 -1.806968e-06
 -1.985486e-05
 -5.273479e-07
 0.000000e+00
 0.000000e+00
 3.346036e-06
 1.193852e-07
 -1.848441e-05
 -5.646938e-07
 7.524878e-07
 1.332396e-06
 -1.856203e-06
 -5.491513e-07
 -1.584468e-05
 -2.490754e-08
 3.094753e-07
 -1.629596e-05
 -4.001128e-07
 -1.620901e-06
 -1.946634e-06
 1.800758e-07
 -1.654280e-05
 -9.449417e-07
 6.410894e-07
 3.638653e-05
 -1.681532e-05
 8.755962e-07
 -1.671628e-05
 1.882905e-05
 -4.098030e-07
 1.888210e-05
 -1.304231e-06
 2.871496e-05
 -2.486799e-06
 -4.755967e-07
 7.596488e-07
 -1.748857e-06
 1.377996e-05
 -1.860191e-05
 1.571605e-05
 1.899749e-05
 1.416040e-07
 3.056151e-06
 2.414942e-06
 1.669351e-05
 -4.900881e-07
 -1.732970e-06
 -3.765837e-05
 -6.935443e-07
 -1.692997e-05
 -1.799864e-05
 1.628840e-05
 5.549024e-07
 9.564428e-07
 0.000000e+00
 0.000000e+00
 7.274780e-06
 -1.489986e-05
 7.055485e-07
 -5.919945e-07
 9.438664e-07
 7.670309e-07
 -3.631470e-05
 -1.202124e-06
 6.749009e-07
 -1.470339e-05
 1.973922e-05
 1.518149e-06
 1.590347e-06
 1.856022e-05
 1.424380e-05
 -2.237439e-06
 3.829624e-07
 1.207326e-06
 2.048058e-05
 1.829937e-07
 -3.874216e-06
 -1.059787e-06
 1.531290e-06
 8.500581e-07
 -3.502532e-05
 1.752525e-06
 3.062553e-07
 -3.779510e-06
 -5.880157e-06
 -4.055100e-06
 -1.923880e-06
 -1.514450e-05
 -2.250612e-06
 -2.702764e-06
 -1.643494e-05
 1.592401e-05
 -1.379322e-06
 2.337997e-07
 -3.503611e-05
 -1.450203e-06
 -2.005353e-05
 -1.915118e-06
 -4.985652e-07
 1.978521e-06
 -1.724142e-06
 -1.234866e-07
 1.289616e-06
 -9.583691e-07
 -1.775037e-05
 0.000000e+00
 0.000000e+00
 5.843448e-06
 -1.594893e-05
 -1.647217e-05
 -1.770104e-05
 1.966283e-05
 -1.738406e-05
 -8.618228e-07
 4.193086e-07
 9.879635e-08
 3.591670e-06
 3.778452e-06
 -1.609714e-05
 2.595976e-06
 1.723995e-06
 -1.862705e-05
 3.326316e-05
 8.768654e-08
 2.010184e-05
 1.821212e-05
 -1.072661e-06
 -1.058939e-06
 1.633040e-05
 1.727585e-05
 -1.808589e-06
 1.607902e-05
 3.003776e-06
 4.518293e-06
 -1.724030e-06
 1.218110e-05
 -2.390582e-06
 3.362492e-05
 1.706423e-05
 -1.645143e-05
 1.534924e-05
 -3.513613e-06
 -1.138460e-06
 -7.094599e-07
 -8.614475e-07
 5.451687e-07
 1.924801e-05
 1.678507e-05
 1.800213e-05
 -2.307206e-06
 -9.382229e-07
 -1.644946e-05
 1.791184e-05
 1.670664e-05
 -3.161824e-06
 -1.014841e-06
 0.000000e+00
 0.000000e+00
 -2.552238e-06
 -1.832563e-05
 1.768585e-07
 2.111008e-06
 2.114749e-05
 -1.538786e-05
 1.488011e-06
 -2.581064e-06
 1.655615e-05
 2.994400e-06
 2.856760e-06
 3.731172e-06
 3.209195e-06
 1.404384e-06
 2.202392e-06
 1.498521e-06
 -1.952860e-06
 7.715781e-07
 -1.798868e-05
 -1.503837e-06
 -1.756690e-05
 9.353672e-07
 4.812625e-07
 -1.346180e-06
 -2.094000e-06
 1.652058e-05
 5.735645e-07
 -5.359934e-05
 -4.262462e-06
 -1.248403e-06
 3.078103e-06
 -2.865057e-06
 -2.608079e-06
 -1.770209e-05
 -1.908692e-06
 3.407334e-05
 1.552332e-05
 -1.330031e-06
 2.038590e-06
 1.893646e-06
 -1.416759e-06
 -4.279696e-06
 -2.028742e-05
 1.712714e-05
 2.349686e-06
 3.298591e-06
 -2.407561e-06
 -3.445630e-06
 1.631399e-05
 0.000000e+00
 0.000000e+00
 -3.054941e-06
 -1.280663e-06
 2.257597e-06
 2.018460e-05
 1.654030e-05
 -1.718807e-05
 -1.118527e-05
 2.310448e-06
 3.306470e-05
 1.716081e-05
 2.284481e-06
 2.992508e-06
 -1.588076e-05
 6.614749e-07
 -1.535538e-05
 2.172876e-07
 -2.022143e-05
 -2.018251e-06
 -1.938166e-05
 -1.917740e-05
 -1.712568e-05
 5.927300e-06
 3.094531e-06
 -1.816212e-05
 -2.039207e-06
 -4.269938e-06
 -2.116672e-05
 -1.812979e-05
 3.318133e-06
 3.688918e-05
 2.015082e-05
 -1.864990e-05
 -3.496200e-06
 -5.327016e-07
 1.553750e-06
 5.025378e-07
 -1.945415e-06
 1.660997e-05
 1.893405e-05
 -2.293786e-07
 -1.119896e-06
 -5.139089e-06
 1.641265e-05
 1.181978e-06
 -1.837228e-06
 -1.721803e-05
 -1.749183e-05
 -1.120928e-06
 -6.072472e-07
 0.000000e+00
 0.000000e+00
 2.342517e-06
 6.883514e-07
 1.982476e-05
 1.722670e-06
 -2.983527e-06
 1.605163e-05
 5.011362e-06
 -3.077512e-05
 1.560430e-06
 1.630453e-05
 3.171411e-07
 1.839694e-07
 -1.697504e-05
 1.679297e-06
 7.361246e-07
 -1.612555e-05
 -8.245662e-07
 1.690707e-05
 -1.901119e-06
 1.553376e-05
 1.881843e-05
 2.051541e-05
 -3.369863e-05
 -1.807189e-05
 -1.864672e-05
 -3.528896e-06
 1.562536e-05
 -1.542350e-05
 2.128669e-05
 2.666089e-06
 -1.865236e-06
 -3.751148e-05
 -4.842517e-08
 5.110406e-07
 2.111820e-06
 1.683420e-05
 -1.072490e-06
 3.594200e-06
 -4.679031e-07
 -2.061533e-05
 -1.111364e-06
 -1.864350e-05
 3.138889e-05
 -2.119510e-05
 -1.841437e-06
 3.026946e-07
 2.949760e-06
 1.194748e-06
 1.712509e-05
 0.000000e+00
 0.000000e+00
 -1.400208e-05
 2.772336e-06
 2.263987e-06
 4.218390e-07
 -5.658126e-07
 1.691593e-05
 -7.793952e-07
 -1.505845e-05
 2.310244e-05
 -8.237367e-07
 -1.053001e-06
 -1.720000e-05
 1.790230e-06
 4.621011e-06
 1.908924e-07
 -1.501006e-06
 -1.663638e-05
 -2.217533e-06
 -1.777331e-05
 9.140400e-07
 1.533998e-05
 -1.682604e-06
 -9.586098e-07
 -1.753961e-05
 -1.012914e-06
 1.482323e-06
 1.854348e-05
 -2.728987e-07
 -1.535696e-06
 -1.352739e-06
 -1.927641e-05
 -1.747401e-05
 3.709145e-06
 1.171423e-06
 2.645655e-06
 -1.675009e-05
 1.609614e-05
 1.737129e-05
 -3.596424e-05
 -2.379914e-07
 1.530025e-06
 4.406514e-07
 -2.842497e-06
 1.053466e-05
 -4.024647e-06
 -1.435480e-07
 -1.641271e-05
 -1.539391e-05
 1.666680e-06
 0.000000e+00
 0.000000e+00
 2.807655e-07
 1.020957e-06
 3.947137e-06
 3.150141e-06
 5.311370e-07
 1.571778e-05
 -9.371683e-07
 2.191109e-06
 1.573539e-06
 -1.967892e-05
 1.620734e-05
 -1.687258e-05
 1.922738e-06
 -1.449427e-05
 -3.576155e-05
 -1.795328e-05
 2.093798e-06
 1.741412e-06
 3.765938e-05
 3.365927e-06
 1.450534e-05
 1.299704e-05
 -1.985250e-05
 -1.935269e-05
 1.490049e-06
 1.855102e-05
 1.337036e-07
 -1.826965e-05
 -1.595598e-06
 3.471798e-05
 -1.168500e-06
 1.870784e-05
 2.752179e-06
 -6.291514e-07
 -1.333877e-06
 -1.626676e-05
 3.055804e-06
 -1.823525e-06
 -1.699946e-06
 3.031464e-06
 2.425030e-06
 -1.840410e-05
 -1.282553e-06
 -3.767153e-06
 1.224594e-05
 3.431750e-05
 -1.289907e-06
 1.977470e-05
 2.609853e-06
 0.000000e+00
 0.000000e+00
 1.989747e-06
 2.014180e-05
 3.576599e-05
 -1.486421e-05
 1.228381e-06
 -1.639459e-06
 1.582409e-05
 -1.744240e-05
 -2.003612e-07
 6.383215e-07
 1.752390e-05
 -1.478605e-06
 -1.853523e-07
 -1.773095e-06
 -3.438415e-05
 1.998527e-05
 -1.250202e-05
 6.176967e-06
 2.722845e-06
 -1.858010e-05
 -1.846566e-05
 1.317306e-05
 -3.881464e-06
 -3.847080e-07
 1.977971e-05
 1.882496e-06
 1.542241e-05
 -7.402329e-07
 4.103139e-07
 1.666211e-05
 -1.708633e-05
 1.970899e-05
 -1.309469e-07
 -8.236959e-07
 1.662901e-05
 1.854314e-05
 1.940080e-05
 6.584271e-07
 -1.045495e-06
 -2.750146e-06
 -1.817212e-05
 -3.505965e-05
 3.086511e-07
 -1.691300e-05
 1.787525e-05
 1.383687e-05
 -2.051876e-05
 1.725952e-05
 -1.865018e-05
 0.000000e+00
 0.000000e+00
 8.999486e-07
 -1.484941e-05
 -1.883427e-05
 -2.230351e-06
 -3.375158e-05
 9.931811e-07
 4.813674e-07
 -9.363707e-07
 8.538055e-07
 1.090554e-06
 2.441686e-08
 -6.270084e-07
 -1.249076e-06
 -3.067705e-06
 6.518813e-07
 2.922197e-06
 1.872365e-05
 -1.383617e-05
 -1.577510e-05
 -1.557219e-05
 2.971453e-06
 -1.716262e-06
 -1.564434e-06
 2.456980e-06
 1.705592e-05
 -2.902896e-06
 -1.943071e-05
 1.188798e-06
 2.747094e-06
 3.477567e-05
 1.948856e-05
 4.739872e-07
 -2.308392e-05
 -1.705251e-05
 3.259448e-06
 2.115135e-06
 -7.979010e-07
 -2.680073e-06
 -1.779625e-05
 -1.419452e-06
 1.332399e-05
 -1.924059e-05
 2.206568e-06
 2.612739e-06
 2.118728e-06
 -1.645536e-06
 1.521557e-05
 -2.909994e-06
 -2.128133e-06
 0.000000e+00
 0.000000e+00
 3.300171e-06
 1.928490e-06
 4.119237e-07
 5.492487e-07
 -1.910048e-06
 2.764809e-06
 8.006575e-07
 -1.661516e-05
 1.571072e-06
 2.291019e-07
 1.005456e-07
 -4.190996e-07
 -1.832314e-05
 -8.312208e-07
 1.779161e-07
 5.636489e-07
 4.543814e-07
 -4.064246e-07
 3.558425e-06
 3.149222e-06
 -1.632140e-05
 -1.834442e-05
 1.773399e-05
 -1.660559e-05
 -1.766407e-05
 -2.119330e-06
 1.568387e-05
 1.896077e-05
 -1.388832e-05
 1.780078e-06
 -1.633635e-06
 -3.699871e-05
 -2.295733e-06
 3.578920e-05
 2.516635e-06
 2.347246e-06
 -1.631816e-05
 -2.577665e-06
 -1.085074e-06
 -1.716849e-05
 -2.052279e-05
 -1.955480e-06
 2.034606e-05
 1.118694e-06
 -3.991349e-07
 -1.107955e-06
 -1.845427e-05
 -2.396213e-06
 1.678702e-05
 0.000000e+00
 0.000000e+00
 4.115850e-06
 -1.609100e-05
 -1.786512e-05
 -8.708109e-07
 -3.433357e-05
 3.799141e-05
 -1.776749e-05
 1.667748e-05
 -1.415560e-05
 1.674516e-06
 1.126624e-07
 8.452569e-08
 -5.430204e-07
 1.503891e-07
 4.326244e-07
 1.119039e-06
 1.860402e-05
 1.442976e-06
 2.217381e-05
 -1.826548e-05
 -8.164940e-07
 2.120293e-06
 1.942119e-05
 1.025147e-06
 1.710077e-05
 -5.878054e-07
 6.043873e-07
 1.391881e-05
 -6.513126e-07
 3.503724e-06
 -3.679181e-06
 -1.962241e-05
 -1.538845e-05
 2.347116e-06
 -1.065086e-06
 -9.002811e-07
 -1.577154e-05
 -1.853178e-05
 -2.727280e-06
 -1.715812e-05
 -4.284727e-07
 -2.237767e-07
 1.019345e-06
 -1.745026e-05
 -9.083723e-07
 -5.506856e-07
 1.728014e-05
 1.721391e-06
 1.813158e-05
 0.000000e+00
 0.000000e+00
 -1.349694e-05
 -2.937803e-07
 -1.941014e-05
 1.869931e-07
 2.675204e-06
 1.617823e-06
 -3.669732e-05
 9.605662e-07
 -1.473841e-07
 -1.262251e-05
 2.711457e-06
 -1.551751e-06
 -1.819351e-05
 -4.313808e-07
 -1.614901e-07
 2.541356e-06
 8.433831e-07
 6.093711e-07
 9.135462e-07
 -5.380716e-05
 1.957570e-05
 -1.493067e-05
 1.759913e-05
 -1.477641e-05
 -1.522595e-05
 1.532744e-05
 1.846366e-05
 -1.661932e-06
 3.327600e-05
 -1.793539e-07
 -2.092716e-05
 1.486565e-05
 1.377689e-06
 3.801491e-05
 -1.655859e-05
 1.626072e-05
 1.102455e-06
 -1.787005e-05
 1.561797e-05
 1.986166e-07
 -1.583670e-05
 1.782142e-05
 1.654397e-05
 -1.283756e-07
 1.765313e-06
 1.932261e-05
 1.895366e-06
 1.633709e-05
 -7.107096e-07
 0.000000e+00
 0.000000e+00
 -1.416888e-05
 -4.996046e-05
 2.043348e-06
 1.993365e-05
 1.250268e-06
 -4.269537e-06
 -3.091763e-06
 3.777676e-06
 1.451021e-06
 2.155540e-05
 -1.136762e-05
 1.316020e-07
 1.516001e-05
 1.061107e-06
 1.906347e-05
 1.884872e-05
 1.284065e-07
 1.792431e-05
 1.176500e-07
 1.627759e-06
 2.197571e-05
 -3.207346e-07
 -9.132367e-08
 1.733341e-05
 -3.405254e-05
 -1.668671e-05
 7.099556e-07
 -1.645712e-05
 1.429289e-05
 -2.014650e-05
 2.792924e-06
 1.835515e-05
 1.768789e-05
 1.742060e-05
 -9.500342e-07
 -2.414562e-06
 -1.915016e-06
 -3.308741e-05
 1.760786e-05
 -1.866558e-06
 2.327169e-06
 2.006283e-06
 -2.282119e-06
 -2.507225e-06
 1.196453e-06
 2.885190e-06
 7.365495e-07
 -1.752080e-05
 1.655262e-05