<VTKFile type="UnstructuredGrid"  version="0.1"   >
<UnstructuredGrid>  
<Piece  NumberOfPoints="     2601"  NumberOfCells="     5000">  
<Points>  
<DataArray  type="Float64"  NumberOfComponents="3"  format="ascii">  
 0.000000 0.000000 0.000000 
 0.020000 0.000000 0.000000 
 0.040000 0.000000 0.000000 
 0.060000 0.000000 0.000000 
 0.080000 0.000000 0.000000 
 0.100000 0.000000 0.000000 
 0.120000 0.000000 0.000000 
 0.140000 0.000000 0.000000 
 0.160000 0.000000 0.000000 
 0.180000 0.000000 0.000000 
 0.200000 0.000000 0.000000 
 0.220000 0.000000 0.000000 
 0.240000 0.000000 0.000000 
 0.260000 0.000000 0.000000 
 0.280000 0.000000 0.000000 
 0.300000 0.000000 0.000000 
 0.320000 0.000000 0.000000 
 0.340000 0.000000 0.000000 
 0.360000 0.000000 0.000000 
 0.380000 0.000000 0.000000 
 0.400000 0.000000 0.000000 
 0.420000 0.000000 0.000000 
 0.440000 0.000000 0.000000 
 0.460000 0.000000 0.000000 
 0.480000 0.000000 0.000000 
 0.500000 0.000000 0.000000 
 0.520000 0.000000 0.000000 
 0.540000 0.000000 0.000000 
 0.560000 0.000000 0.000000 
 0.580000 0.000000 0.000000 
 0.600000 0.000000 0.000000 
 0.620000 0.000000 0.000000 
 0.640000 0.000000 0.000000 
 0.660000 0.000000 0.000000 
 0.680000 0.000000 0.000000 
 0.700000 0.000000 0.000000 
 0.720000 0.000000 0.000000 
 0.740000 0.000000 0.000000 
 0.760000 0.000000 0.000000 
 0.780000 0.000000 0.000000 
 0.800000 0.000000 0.000000 
 0.820000 0.000000 0.000000 
 0.840000 0.000000 0.000000 
 0.860000 0.000000 0.000000 
 0.880000 0.000000 0.000000 
 0.900000 0.000000 0.000000 
 0.920000 0.000000 0.000000 
 0.940000 0.000000 0.000000 
 0.960000 0.000000 0.000000 
 0.980000 0.000000 0.000000 
 1.000000 0.000000 0.000000 
 0.000000 0.020000 0.000000 
 0.020000 0.020000 0.000000 
 0.040000 0.020000 0.000000 
 0.060000 0.020000 0.000000 
 0.080000 0.020000 0.000000 
 0.100000 0.020000 0.000000 
 0.120000 0.020000 0.000000 
 0.140000 0.020000 0.000000 
 0.160000 0.020000 0.000000 
 0.180000 0.020000 0.000000 
 0.200000 0.020000 0.000000 
 0.220000 0.020000 0.000000 
 0.240000 0.020000 0.000000 
 0.260000 0.020000 0.000000 
 0.280000 0.020000 0.000000 
 0.300000 0.020000 0.000000 
 0.320000 0.020000 0.000000 
 0.340000 0.020000 0.000000 
 0.360000 0.020000 0.000000 
 0.380000 0.020000 0.000000 
 0.400000 0.020000 0.000000 
 0.420000 0.020000 0.000000 
 0.440000 0.020000 0.000000 
 0.460000 0.020000 0.000000 
 0.480000 0.020000 0.000000 
 0.500000 0.020000 0.000000 
 0.520000 0.020000 0.000000 
 0.540000 0.020000 0.000000 
 0.560000 0.020000 0.000000 
 0.580000 0.020000 0.000000 
 0.600000 0.020000 0.000000 
 0.620000 0.020000 0.000000 
 0.640000 0.020000 0.000000 
 0.660000 0.020000 0.000000 
 0.680000 0.020000 0.000000 
 0.700000 0.020000 0.000000 
 0.720000 0.020000 0.000000 
 0.740000 0.020000 0.000000 
 0.760000 0.020000 0.000000 
 0.780000 0.020000 0.000000 
 0.800000 0.020000 0.000000 
 0.820000 0.020000 0.000000 
 0.840000 0.020000 0.000000 
 0.860000 0.020000 0.000000 
 0.880000 0.020000 0.000000 
 0.900000 0.020000 0.000000 
 0.920000 0.020000 0.000000 
 0.940000 0.020000 0.000000 
 0.960000 0.020000 0.000000 
 0.980000 0.020000 0.000000 
 1.000000 0.020000 0.000000 
 0.000000 0.040000 0.000000 
 0.020000 0.040000 0.000000 
 0.040000 0.040000 0.000000 
 0.060000 0.040000 0.000000 
 0.080000 0.040000 0.000000 
 0.100000 0.040000 0.000000 
 0.120000 0.040000 0.000000 
 0.140000 0.040000 0.000000 
 0.160000 0.040000 0.000000 
 0.180000 0.040000 0.000000 
 0.200000 0.040000 0.000000 
 0.220000 0.040000 0.000000 
 0.240000 0.040000 0.000000 
 0.260000 0.040000 0.000000 
 0.280000 0.040000 0.000000 
 0.300000 0.040000 0.000000 
 0.320000 0.040000 0.000000 
 0.340000 0.040000 0.000000 
 0.360000 0.040000 0.000000 
 0.380000 0.040000 0.000000 
 0.400000 0.040000 0.000000 
 0.420000 0.040000 0.000000 
 0.440000 0.040000 0.000000 
 0.460000 0.040000 0.000000 
 0.480000 0.040000 0.000000 
 0.500000 0.040000 0.000000 
 0.520000 0.040000 0.000000 
 0.540000 0.040000 0.000000 
 0.560000 0.040000 0.000000 
 0.580000 0.040000 0.000000 
 0.600000 0.040000 0.000000 
 0.620000 0.040000 0.000000 
 0.640000 0.040000 0.000000 
 0.660000 0.040000 0.000000 
 0.680000 0.040000 0.000000 
 0.700000 0.040000 0.000000 
 0.720000 0.040000 0.000000 
 0.740000 0.040000 0.000000 
 0.760000 0.040000 0.000000 
 0.780000 0.040000 0.000000 
 0.800000 0.040000 0.000000 
 0.820000 0.040000 0.000000 
 0.840000 0.040000 0.000000 
 0.860000 0.040000 0.000000 
 0.880000 0.040000 0.000000 
 0.900000 0.040000 0.000000 
 0.920000 0.040000 0.000000 
 0.940000 0.040000 0.000000 
 0.960000 0.040000 0.000000 
 0.980000 0.040000 0.000000 
 1.000000 0.040000 0.000000 
 0.000000 0.060000 0.000000 
 0.020000 0.060000 0.000000 
 0.040000 0.060000 0.000000 
 0.060000 0.060000 0.000000 
 0.080000 0.060000 0.000000 
 0.100000 0.060000 0.000000 
 0.120000 0.060000 0.000000 
 0.140000 0.060000 0.000000 
 0.160000 0.060000 0.000000 
 0.180000 0.060000 0.000000 
 0.200000 0.060000 0.000000 
 0.220000 0.060000 0.000000 
 0.240000 0.060000 0.000000 
 0.260000 0.060000 0.000000 
 0.280000 0.060000 0.000000 
 0.300000 0.060000 0.000000 
 0.320000 0.060000 0.000000 
 0.340000 0.060000 0.000000 
 0.360000 0.060000 0.000000 
 0.380000 0.060000 0.000000 
 0.400000 0.060000 0.000000 
 0.420000 0.060000 0.000000 
 0.440000 0.060000 0.000000 
 0.460000 0.060000 0.000000 
 0.480000 0.060000 0.000000 
 0.500000 0.060000 0.000000 
 0.520000 0.060000 0.000000 
 0.540000 0.060000 0.000000 
 0.560000 0.060000 0.000000 
 0.580000 0.060000 0.000000 
 0.600000 0.060000 0.000000 
 0.620000 0.060000 0.000000 
 0.640000 0.060000 0.000000 
 0.660000 0.060000 0.000000 
 0.680000 0.060000 0.000000 
 0.700000 0.060000 0.000000 
 0.720000 0.060000 0.000000 
 0.740000 0.060000 0.000000 
 0.760000 0.060000 0.000000 
 0.780000 0.060000 0.000000 
 0.800000 0.060000 0.000000 
 0.820000 0.060000 0.000000 
 0.840000 0.060000 0.000000 
 0.860000 0.060000 0.000000 
 0.880000 0.060000 0.000000 
 0.900000 0.060000 0.000000 
 0.920000 0.060000 0.000000 
 0.940000 0.060000 0.000000 
 0.960000 0.060000 0.000000 
 0.980000 0.060000 0.000000 
 1.000000 0.060000 0.000000 
 0.000000 0.080000 0.000000 
 0.020000 0.080000 0.000000 
 0.040000 0.080000 0.000000 
 0.060000 0.080000 0.000000 
 0.080000 0.080000 0.000000 
 0.100000 0.080000 0.000000 
 0.120000 0.080000 0.000000 
 0.140000 0.080000 0.000000 
 0.160000 0.080000 0.000000 
 0.180000 0.080000 0.000000 
 0.200000 0.080000 0.000000 
 0.220000 0.080000 0.000000 
 0.240000 0.080000 0.000000 
 0.260000 0.080000 0.000000 
 0.280000 0.080000 0.000000 
 0.300000 0.080000 0.000000 
 0.320000 0.080000 0.000000 
 0.340000 0.080000 0.000000 
 0.360000 0.080000 0.000000 
 0.380000 0.080000 0.000000 
 0.400000 0.080000 0.000000 
 0.420000 0.080000 0.000000 
 0.440000 0.080000 0.000000 
 0.460000 0.080000 0.000000 
 0.480000 0.080000 0.000000 
 0.500000 0.080000 0.000000 
 0.520000 0.080000 0.000000 
 0.540000 0.080000 0.000000 
 0.560000 0.080000 0.000000 
 0.580000 0.080000 0.000000 
 0.600000 0.080000 0.000000 
 0.620000 0.080000 0.000000 
 0.640000 0.080000 0.000000 
 0.660000 0.080000 0.000000 
 0.680000 0.080000 0.000000 
 0.700000 0.080000 0.000000 
 0.720000 0.080000 0.000000 
 0.740000 0.080000 0.000000 
 0.760000 0.080000 0.000000 
 0.780000 0.080000 0.000000 
 0.800000 0.080000 0.000000 
 0.820000 0.080000 0.000000 
 0.840000 0.080000 0.000000 
 0.860000 0.080000 0.000000 
 0.880000 0.080000 0.000000 
 0.900000 0.080000 0.000000 
 0.920000 0.080000 0.000000 
 0.940000 0.080000 0.000000 
 0.960000 0.080000 0.000000 
 0.980000 0.080000 0.000000 
 1.000000 0.080000 0.000000 
 0.000000 0.100000 0.000000 
 0.020000 0.100000 0.000000 
 0.040000 0.100000 0.000000 
 0.060000 0.100000 0.000000 
 0.080000 0.100000 0.000000 
 0.100000 0.100000 0.000000 
 0.120000 0.100000 0.000000 
 0.140000 0.100000 0.000000 
 0.160000 0.100000 0.000000 
 0.180000 0.100000 0.000000 
 0.200000 0.100000 0.000000 
 0.220000 0.100000 0.000000 
 0.240000 0.100000 0.000000 
 0.260000 0.100000 0.000000 
 0.280000 0.100000 0.000000 
 0.300000 0.100000 0.000000 
 0.320000 0.100000 0.000000 
 0.340000 0.100000 0.000000 
 0.360000 0.100000 0.000000 
 0.380000 0.100000 0.000000 
 0.400000 0.100000 0.000000 
 0.420000 0.100000 0.000000 
 0.440000 0.100000 0.000000 
 0.460000 0.100000 0.000000 
 0.480000 0.100000 0.000000 
 0.500000 0.100000 0.000000 
 0.520000 0.100000 0.000000 
 0.540000 0.100000 0.000000 
 0.560000 0.100000 0.000000 
 0.580000 0.100000 0.000000 
 0.600000 0.100000 0.000000 
 0.620000 0.100000 0.000000 
 0.640000 0.100000 0.000000 
 0.660000 0.100000 0.000000 
 0.680000 0.100000 0.000000 
 0.700000 0.100000 0.000000 
 0.720000 0.100000 0.000000 
 0.740000 0.100000 0.000000 
 0.760000 0.100000 0.000000 
 0.780000 0.100000 0.000000 
 0.800000 0.100000 0.000000 
 0.820000 0.100000 0.000000 
 0.840000 0.100000 0.000000 
 0.860000 0.100000 0.000000 
 0.880000 0.100000 0.000000 
 0.900000 0.100000 0.000000 
 0.920000 0.100000 0.000000 
 0.940000 0.100000 0.000000 
 0.960000 0.100000 0.000000 
 0.980000 0.100000 0.000000 
 1.000000 0.100000 0.000000 
 0.000000 0.120000 0.000000 
 0.020000 0.120000 0.000000 
 0.040000 0.120000 0.000000 
 0.060000 0.120000 0.000000 
 0.080000 0.120000 0.000000 
 0.100000 0.120000 0.000000 
 0.120000 0.120000 0.000000 
 0.140000 0.120000 0.000000 
 0.160000 0.120000 0.000000 
 0.180000 0.120000 0.000000 
 0.200000 0.120000 0.000000 
 0.220000 0.120000 0.000000 
 0.240000 0.120000 0.000000 
 0.260000 0.120000 0.000000 
 0.280000 0.120000 0.000000 
 0.300000 0.120000 0.000000 
 0.320000 0.120000 0.000000 
 0.340000 0.120000 0.000000 
 0.360000 0.120000 0.000000 
 0.380000 0.120000 0.000000 
 0.400000 0.120000 0.000000 
 0.420000 0.120000 0.000000 
 0.440000 0.120000 0.000000 
 0.460000 0.120000 0.000000 
 0.480000 0.120000 0.000000 
 0.500000 0.120000 0.000000 
 0.520000 0.120000 0.000000 
 0.540000 0.120000 0.000000 
 0.560000 0.120000 0.000000 
 0.580000 0.120000 0.000000 
 0.600000 0.120000 0.000000 
[...]
<PointData  Scalars="U"> 
<DataArray  type="Float64"  Name="U"  format="ascii"> 
 0.000000e+00
 0.000000e+00
 0.000000e+00
 0.000000e+00
 0.000000e+00
 0.000000e+00
 0.000000e+00
 0.000000e+00
 0.000000e+00
 0.000000e+00
 0.000000e+00
 0.000000e+00
 0.000000e+00
 0.000000e+00
 0.000000e+00
 0.000000e+00
 0.000000e+00
 0.000000e+00
 0.000000e+00
 0.000000e+00
 0.000000e+00
 0.000000e+00
 0.000000e+00
 0.000000e+00
 0.000000e+00
 0.000000e+00
 0.000000e+00
 0.000000e+00
 0.000000e+00
 0.000000e+00
 0.000000e+00
 0.000000e+00
 0.000000e+00
 0.000000e+00
 0.000000e+00
 0.000000e+00
 0.000000e+00
 0.000000e+00
 0.000000e+00
 0.000000e+00
 0.000000e+00
 0.000000e+00
 0.000000e+00
 0.000000e+00
 0.000000e+00
 0.000000e+00
 0.000000e+00
 0.000000e+00
 0.000000e+00
 0.000000e+00
 0.000000e+00
 0.000000e+00
 -6.814074e-06
 -4.401057e-05
 -5.630951e-06
 -2.184581e-06
 -7.539901e-07
 1.757703e-07
 -2.759036e-07
 -1.741030e-05
 3.853264e-07
 3.347748e-07
 1.960112e-09
 1.663016e-05
 -1.926820e-06
 -2.086800e-05
 -2.923113e-06
 1.798645e-05
 1.693860e-05
 -1.300092e-06
 -1.506399e-06
 -3.808169e-07
 2.411292e-07
 -2.009708e-07
 5.780117e-07
 -1.457983e-05
 3.228130e-06
 3.440136e-07
 1.694363e-05
 -5.161457e-06
 9.649558e-06
 -2.356973e-05
 -3.748314e-05
 -1.696705e-05
 -1.899157e-05
 -1.359311e-06
 -7.363787e-07
 -3.426711e-06
 -4.837326e-06
 -1.077050e-06
 1.454713e-06
 4.691514e-07
 -3.241729e-06
 -2.818847e-06
 1.425414e-06
 2.938212e-06
 9.766766e-07
 6.645759e-08
 1.738436e-05
 -1.246471e-07
 -1.827259e-08
 0.000000e+00
 0.000000e+00
 -7.088733e-06
 -2.188427e-05
 1.669456e-05
 -1.899074e-06
 1.608321e-05
 -1.144977e-06
 -1.368319e-06
 3.828379e-08
 1.738235e-06
 6.840549e-07
 6.718947e-07
 -1.192190e-06
 -3.933731e-06
 -2.157941e-06
 4.385491e-07
 1.343645e-07
 -1.897564e-05
 -1.371870e-06
 8.991482e-07
 1.687093e-05
 -1.771456e-06
 -9.687053e-07
 -8.163695e-07
 7.509533e-07
 1.824723e-06
 1.226811e-07
 -1.955537e-06
 -2.165821e-05
 -6.013506e-06
 -2.553852e-05
 -1.059345e-06
 1.426784e-06
 -1.725650e-05
 1.690653e-05
 -1.144025e-06
 -2.080580e-06
 -1.773050e-06
 1.544131e-05
 -1.336061e-06
 -1.773787e-05
 -1.701468e-05
 3.608030e-07
 3.959791e-06
 1.849752e-05
 -2.127312e-06
 2.658595e-08
 -9.403004e-08
 -8.971584e-07
 5.870214e-08
 0.000000e+00
 0.000000e+00
 -4.766800e-06
 -5.701785e-07
 -5.739486e-07
 -2.723759e-06
 -1.666980e-06
 -2.576553e-06
 -1.125744e-06
 -2.193700e-08
 1.697931e-06
 6.397799e-07
 5.571425e-07
 -1.037361e-06
 -2.633289e-06
 -1.758470e-06
 -2.022316e-06
 -1.212979e-06
 2.486140e-07
 1.214922e-06
 2.028440e-06
 -1.813545e-05
 -3.290289e-06
 -1.457471e-06
 -7.512229e-07
 -1.919316e-07
 -4.822204e-07
 -3.555968e-06
 -3.031507e-06
 -1.910368e-06
 -3.229048e-06
 -2.357005e-06
 1.645719e-05
 -1.940900e-05
 6.541388e-07
 9.551060e-07
 1.575665e-05
 -9.344528e-07
 1.815174e-05
 -1.723333e-06
 1.269497e-05
 -2.635778e-06
 5.707223e-07
 -1.594921e-05
 2.420117e-06
 -5.078973e-05
 -1.629077e-06
 -2.081310e-06
 -8.879732e-08
 2.058935e-06
 5.170364e-07
 0.000000e+00
 0.000000e+00
 7.170519e-07
 1.490372e-07
 -1.925585e-05
 -1.923767e-06
 -4.086785e-07
 -1.535319e-06
 -1.445183e-06
 1.084298e-07
 2.609246e-07
 -1.734016e-05
 1.062022e-06
 -1.802086e-05
 -1.723961e-06
 -8.140330e-07
 -2.732709e-07
 1.694931e-05
 -8.557917e-07
 -5.882255e-07
 1.129565e-06
 -1.810811e-05
 -1.303445e-06
 -1.261931e-06
 -1.002887e-06
 3.298626e-07
 -7.335888e-07
 -1.054176e-06
 3.252594e-05
 -3.456694e-06
 -3.929093e-06
 -2.087645e-06
 -1.937937e-05
 -8.380028e-07
 1.214719e-06
 2.368639e-07
 -4.287863e-07
 -1.221221e-06
 -1.102860e-06
 -1.863664e-05
 -2.526816e-06
 -3.946145e-06
 -6.646859e-07
 2.950909e-07
 -3.184892e-06
 -1.772823e-05
 -1.235015e-05
 1.016615e-06
 1.647732e-05
 1.343681e-07
 -1.642509e-05
 0.000000e+00
 0.000000e+00
 1.968734e-06
 -1.949267e-05
 -1.840733e-05
 6.936522e-07
 -1.048537e-06
 -2.053517e-05
 -3.361344e-07
 2.451738e-06
 -5.496254e-07
 -1.017373e-06
 2.098556e-07
 -1.730185e-05
 -4.626874e-08
 9.594518e-09
 2.572307e-06
 7.553532e-07
 -2.965598e-06
 -2.449542e-06
 -2.232582e-06
 -3.577003e-05
 1.816266e-06
 -6.630171e-07
 -1.972763e-06
 -1.454441e-06
 -1.833181e-05
 3.506243e-07
 -2.025267e-05
 -3.185384e-06
 -1.625031e-06
 1.379790e-05
 -3.385762e-06
 -2.023162e-07
 -1.688175e-05
 2.655996e-07
 -3.183079e-07
 -1.124243e-08
 -2.271807e-06
 -2.643103e-06
 -1.849000e-05
 -1.689494e-06
 -2.981684e-07
 -1.867190e-05
 -1.957477e-05
 1.756418e-05
 3.428177e-06
 3.787176e-06
 -5.434390e-07
 1.537320e-05
 3.651091e-07
 0.000000e+00
 0.000000e+00
 1.890656e-06
 -7.345185e-07
 1.739112e-05
 -1.315789e-06
 -1.405179e-06
 4.256134e-07
 3.586657e-05
 -1.073269e-06
 -1.741183e-05
 -6.546574e-07
 -1.753544e-06
 2.089107e-06
 1.951144e-06
 1.658070e-05
 -4.328323e-07
 -1.817189e-05
 -1.853425e-05
 -1.497581e-06
 -3.261081e-06
 -1.386700e-06
 1.845509e-06
 -1.768733e-05
 -1.376477e-06
 -3.681902e-06
 -1.349398e-06
 5.171445e-07
 -1.944414e-06
 1.712001e-05
 -1.750259e-05
 -1.632949e-06
 -3.305375e-06
 1.486665e-05
 -9.541552e-07
 1.804051e-06
 -5.498681e-07
 -1.788661e-06
 -1.907668e-05
 -2.454070e-06
 -2.745619e-06
 -5.096562e-07
 -1.543558e-06
 -1.985744e-05
 1.362983e-06
 3.347000e-06
 1.733554e-06
 3.155822e-06
 1.654093e-06
 1.649060e-05
 -1.695475e-06
 0.000000e+00
 0.000000e+00
 1.485179e-06
 1.428215e-06
 -2.106259e-06
 -4.551127e-06
 1.673247e-05
 2.114035e-06
 -9.965948e-07
 -2.944244e-06
 1.940137e-05
 1.444607e-06
 1.779783e-05
 1.820183e-05
 -1.806961e-05
 -1.602409e-06
 -1.711131e-06
 -2.399136e-06
 2.768166e-07
 2.008022e-06
 -1.916192e-06
 -2.544519e-06
 -1.481005e-06
 8.428394e-07
 2.954478e-07
 -3.235402e-06
 1.520064e-05
 3.497142e-08
 3.595945e-07
 1.543517e-05
 -2.292715e-06
 9.564745e-07
 -1.141088e-06
 -2.986966e-06
 -3.129857e-06
 -1.129110e-06
 -1.828560e-05
 -1.601860e-06
 6.108598e-08
 2.031087e-07
 -1.331515e-06
 1.619140e-05
 -3.424375e-06
 -3.426181e-07
 2.209555e-05
 1.966865e-05
 5.069162e-07
 1.066073e-06
 -1.573878e-05
 2.319538e-07
 -1.526036e-06
 0.000000e+00
 0.000000e+00
 -9.108038e-07
 -1.752751e-05
 -2.010758e-05
 -1.689907e-06
 1.745035e-05
 -5.361515e-07
 3.675978e-07
 1.796939e-05
 1.089214e-06
 -1.775843e-05
 1.571847e-07
 -1.991967e-05
 -2.057541e-05
 -3.763169e-07
 4.810381e-07
 -1.727509e-05
 2.052847e-05
 -5.982189e-07
 -2.113200e-05
 -1.789688e-06
 -2.048479e-06
 5.288922e-07
 -1.735444e-05
 -4.234336e-07
 1.814259e-05
 1.572997e-05
 -1.378760e-06
 -3.096436e-06
 -2.166037e-06
 -9.702989e-07
 -1.958163e-05
 -2.081821e-06
 -3.287006e-06
 -2.090411e-06
 -1.505576e-07
 8.856061e-08
 -8.949598e-07
 -1.830922e-05
 2.414300e-06
 3.898755e-07
 -3.961017e-06
 1.594621e-05
 3.249439e-06
 -1.577864e-05
 -1.156171e-06
 -8.342977e-07
 1.564685e-06
 1.678303e-06
 -5.005485e-07
 0.000000e+00
 0.000000e+00
 -3.196982e-06
 -2.687031e-06
 -1.845671e-05
 1.611332e-05
 -1.420841e-06
 4.885461e-07
 1.613141e-06
 -3.388543e-07
 -2.491631e-06
 -1.736001e-05
 -1.200145e-06
 -2.315444e-05
 -1.793805e-05
 1.928013e-06
 -1.565795e-06
 -1.625906e-05
 3.093160e-06
 -5.476710e-05
 -1.634401e-06
 5.842749e-07
 -1.992602e-07
 1.691206e-05
 -2.061190e-05
 9.022722e-07
 1.993742e-06
 -1.902041e-05
 -2.401436e-06
 -2.225050e-06
 1.374454e-05
 -2.036105e-05
 -9.410755e-07
 -3.706858e-07
 -2.352569e-06
 1.653195e-05
 -6.795940e-08
 -2.057152e-06
 -3.618197e-06
 1.001115e-06
 2.114333e-05
 -1.667954e-05
 -4.505406e-07
 1.676571e-05
 3.869094e-05
 9.141477e-07
 -1.737206e-06
 -1.732709e-06
 -1.184387e-06
 -1.645496e-05
 9.840740e-07
 0.000000e+00
 0.000000e+00
 -4.026795e-06
 -2.008028e-05
 1.713261e-08
 1.534448e-07
 3.389580e-05
 1.769709e-05
 -5.224380e-07
 -1.180246e-06
 -2.187409e-06
 -1.175085e-06
 -1.825810e-05
 -2.354913e-06
 3.457195e-05
 3.094098e-07
 -9.676218e-07
 1.946329e-05
 -9.187390e-07
 -1.906106e-05
 3.148993e-06
 7.576039e-07
 3.179963e-06
 -2.159941e-06
 -2.076706e-05
 3.521186e-05
 -1.656697e-06
 5.207954e-08
 4.873102e-07
 -1.333375e-06
 -3.263365e-06
 1.401966e-05
 -6.212389e-07
 -1.883959e-06
 1.138637e-07
 1.788565e-05
 -1.202836e-06
 -5.619415e-07
 1.691014e-05
 3.574876e-05
 9.008023e-07
 -5.094942e-07
 2.262520e-06
 1.911189e-05
 1.306920e-05
 -7.395471e-05
 2.572285e-06
 9.333235e-07
 1.698862e-05
 1.723907e-05
 4.798678e-07
 0.000000e+00
 0.000000e+00
 -1.970134e-06
 -1.025966e-06
 4.089566e-07
 2.340672e-06
 1.890315e-05
 -3.191306e-06
 -2.836104e-06
 -1.915991e-06
 -1.698225e-06
 -4.525693e-07
 7.539889e-07
 8.763464e-07
 -3.190385e-06
 -3.848585e-06
 -1.185907e-06
 -9.234543e-07
 -3.563350e-05
 1.293938e-06
 1.258552e-06
 -1.080712e-06
 1.563780e-06
 -3.433176e-05
 1.857573e-05
 1.279890e-06
 1.691257e-05
 1.702333e-05
 -1.964089e-06
 -2.611052e-06
 -2.264557e-06
 -1.735248e-06
 -2.888729e-06
 -6.813901e-07
 1.724099e-05
 -9.638926e-08
 6.729398e-07
 6.834253e-07
 -5.599186e-07
 -4.594111e-07
 -2.067332e-06
 -1.977384e-05
 3.511540e-06
 2.451136e-06
 -6.041683e-06
 3.336061e-05
 2.199555e-05
 -1.587753e-05
 -7.101441e-07
 -1.877394e-05
 -7.665773e-07
 0.000000e+00
 0.000000e+00
 -5.944005e-07
 -6.708557e-08
 9.188977e-07
 1.917010e-05
 -6.100418e-08
 -2.560876e-06
 -1.951506e-06
 -2.853088e-06
 -2.721153e-06
 -4.809202e-07
 -1.715043e-05
 -1.763698e-05
 -1.089998e-06
 1.466930e-05
 -1.895692e-06
 1.488128e-05
 -2.287665e-06
 -1.494316e-05
 -1.554716e-05
 4.907554e-07
 1.632120e-05
 -1.500093e-05
 3.549549e-06
 3.745539e-07
 -6.601693e-07
 -3.966586e-05
 -2.154271e-05
 -1.842881e-05
 -3.605623e-06
 -5.207969e-07
 2.736274e-06
 1.765026e-05
 -2.164266e-06
 1.581388e-05
 -1.283975e-07
 -1.753534e-05
 2.664020e-08
 1.584031e-05
 -1.870641e-05
 1.395902e-06
 3.991046e-05
 -1.583527e-05
 -2.538710e-06
 -5.244994e-07
 -2.012264e-05
 -2.107342e-06
 -1.660100e-05
 1.595413e-05
 -1.737878e-05
 0.000000e+00
 0.000000e+00
 -1.179401e-06
 3.377700e-07
 2.020327e-06
 5.962812e-07
 -1.443139e-06
 -2.242685e-06
 -1.055437e-06
 -2.914426e-07
 1.604839e-05
 1.500565e-05
 -9.485607e-07
 6.452773e-07
 8.538488e-07
 -7.561196e-07
 1.560328e-05
 -3.257482e-06
 -3.534517e-06
 1.738664e-05
 2.329916e-06
 2.412648e-06
 -2.094377e-06
 -1.246401e-06
 -1.440081e-05
 -1.238274e-06
 -2.032040e-05
 -1.138460e-06
 1.816018e-05
 1.846633e-05
 1.331173e-06
 5.246614e-05
 -2.066479e-07
 -2.146035e-05
 9.718253e-07
 1.807833e-05
 -4.531922e-06
 -5.782168e-07
 2.031639e-06
 1.135662e-07
 1.600433e-05
 2.131912e-06
 1.221007e-06
 -3.693928e-05
 -1.859742e-05
 1.601551e-05
 -1.803883e-05
 -4.176767e-07
 -8.180282e-07
 -1.705863e-05
 1.729335e-05
 0.000000e+00
 0.000000e+00
 2.943724e-07
 1.799477e-05
 -6.045678e-07
 -1.809270e-08
 2.555126e-07
 -4.796733e-07
 1.739314e-05
 6.548566e-07
 -5.615450e-07
 -3.745817e-06
 -4.612888e-06
 -1.849128e-05
 6.507583e-07
 -9.706177e-08
 -2.382621e-07
 -1.964269e-06
 1.516221e-05
 -8.456833e-07
 8.792101e-07
 1.371057e-06
 -1.230232e-07
 1.512721e-05
 -1.700120e-06
 -1.764272e-05
 1.866945e-05
 2.162498e-06
 2.518979e-07
 -8.458320e-07
 2.522766e-06
 1.187150e-06
 -5.327526e-06
 -1.941027e-06
 5.298415e-05
 -3.767139e-05
 -4.954460e-06
 -8.127585e-08
 1.459473e-06
 -8.434355e-07
 -1.930644e-05
 -7.366433e-07
 -7.977630e-07
 -1.762517e-05
 3.821068e-06
 1.810219e-05
 -2.948581e-06
 3.133678e-07
 -1.078001e-06
 1.843383e-05
 2.098820e-06
 0.000000e+00
 0.000000e+00
 9.976868e-07
 1.797466e-06
 -7.677274e-08
 1.632954e-05
 -5.026830e-07
 -6.318694e-07
 9.780539e-07
 1.470989e-06
 -7.517827e-07
 -3.738671e-06
 -3.634575e-06
 1.727758e-05
 -1.105885e-06
 2.043279e-06
 2.090889e-05
 -1.431641e-06
 -2.369007e-06
 1.540064e-05
 -1.154887e-06
 -1.941734e-05
 -1.749883e-05
 -1.682963e-05
 -3.865029e-06
 -1.562690e-06
 2.391688e-06
 -1.653591e-05
 5.306132e-07
 -2.450490e-06
 -1.267267e-06
 -1.631421e-05
 -1.700293e-05
 1.445063e-06
 -2.314804e-06
 -4.558391e-06
 1.874854e-05
 3.461328e-05
 -8.674018e-07
 -1.750600e-06
 1.639872e-05
 1.758449e-05
 -9.723888e-07
 1.220383e-06
 4.961209e-06
 2.094825e-06
 -2.212446e-06
 1.734524e-05
 7.327182e-07
 1.725684e-05
 -9.076277e-07
 0.000000e+00
 0.000000e+00
 -1.474164e-05
 2.172485e-05
 -1.656095e-05
 -1.749609e-06
 -1.277145e-06
 1.562101e-07
 1.621680e-05
 -1.939991e-05
 -3.622015e-05
 -1.884728e-05
 -4.609985e-07
 -4.671953e-07
 -1.856292e-05
 3.546971e-05
 -3.751996e-05
 -3.747752e-05
 1.737468e-06
 1.099272e-06
 -3.351468e-06
 -2.099899e-06
 1.677869e-05
 -1.763518e-07
 -1.672957e-05
 1.767933e-05
 1.758670e-05
 2.171128e-06
 2.083331e-06
 3.958291e-07
 3.337883e-05
 1.536993e-05
 8.275423e-07
 1.135197e-06
 -7.553182e-07
 -9.475554e-07
 2.798649e-06
 -4.252550e-07
 -4.036565e-06
 -2.140408e-06
 -8.183543e-07
 -2.808259e-06
 -1.580026e-06
 2.680624e-06
 2.620606e-06
 -1.629433e-05
 -1.732308e-05
 -1.377103e-06
 -1.740496e-05
 1.974463e-06
 -1.079206e-06
 0.000000e+00
 0.000000e+00
 4.436734e-06
 1.973261e-05
 -3.510396e-05
 1.757665e-05
 -1.081153e-06
 -1.941606e-06
 -2.156808e-05
 -3.559865e-06
 4.578770e-08
 -2.626457e-07
 9.580714e-07
 -3.656311e-07
 1.219702e-06
 1.543883e-07
 -2.754277e-06
 3.674758e-05
 1.903012e-05
 4.013371e-07
 -2.027272e-05
 -2.034403e-06
 -1.847347e-05
 -2.317237e-06
 1.034610e-06
 2.427960e-06
 -3.643141e-07
 -1.065946e-07
 -1.541221e-05
 8.515097e-07
 -1.805395e-05
 -2.788347e-06
 -1.692594e-06
 -3.633859e-07
 -1.734676e-06
 -3.489618e-07
 1.863925e-05
 -1.612619e-05
 -6.888272e-07
 -1.813549e-06
 1.602563e-05
 -2.790120e-06
 1.613224e-05
 1.422539e-06
 -1.790925e-05
 -1.941194e-05
 -1.514776e-05
 3.636809e-06
 1.823608e-05
 3.971951e-07
 -1.775138e-05
 0.000000e+00
 0.000000e+00
 1.382041e-06
 -1.488832e-07
 1.045392e-07
 4.683053e-06
 1.560654e-05
 -5.403792e-06
 1.470896e-05
 1.742204e-05
 -2.355608e-07
 3.537908e-07
 3.495566e-05
 -6.767737e-07
 1.678708e-05
 -3.166924e-07
 1.243115e-06
 -1.692821e-05
 -2.989415e-06
 -2.179020e-06
 -1.891380e-05
 1.581864e-05
 -2.591699e-06
 -6.866150e-07
 1.071832e-06
 -6.027790e-07
 6.428558e-07
 2.095671e-06
 -5.725538e-07
 -1.526291e-05
 1.797352e-05
 -1.743901e-06
 7.019069e-07
 3.760380e-07
 -1.211042e-06
 1.629096e-05
 -9.701270e-07
 -2.132871e-07
 -1.623001e-05
 1.610101e-07
 -1.115661e-06
 -1.882419e-06
 1.367622e-05
 -3.259628e-06
 -1.767527e-05
 8.645247e-07
 2.141952e-05
 3.899742e-06
 -1.723242e-05
 -2.362047e-06
 -8.946379e-07
 0.000000e+00
 0.000000e+00
 1.656240e-05
 -1.326106e-06
 -9.451895e-07
 5.008797e-07
 -3.436306e-05
 -1.845382e-06
 1.448911e-05
 -3.231118e-06
 -2.557376e-07
 2.078905e-06
 1.822434e-07
 -3.106668e-06
 -3.143929e-06
 -1.769760e-06
 1.018702e-06
 -1.813283e-07
 -9.719322e-07
 -3.393056e-06
 -1.678615e-05
 1.260474e-06
 -3.143798e-06
 1.719817e-05
 1.840610e-05
 6.891277e-07
 3.537425e-05
 -3.313597e-07
 -1.871371e-05
 1.647464e-05
 -3.532003e-05
 6.224590e-07
 1.831705e-05
 -1.779231e-05
 -2.096954e-07
 -1.273366e-06
 1.517174e-05
 4.579840e-07
 7.521496e-07
 3.373744e-07
 -2.581362e-06
 6.165628e-08
 1.134049e-07
 3.124930e-05
 -1.553454e-06
 6.658974e-07
 1.074833e-06
 -1.593240e-05
 2.932349e-06
 -1.074523e-06
 -2.107102e-06
 0.000000e+00
 0.000000e+00
 -1.414379e-06
 -4.002755e-06
 -3.289928e-06
 -2.559413e-06
 -4.984495e-07
 -1.486872e-05
 -1.138834e-06
 1.615812e-05
 1.995564e-05
 -8.201610e-07
 -4.271520e-06
 -2.050418e-05
 -5.340359e-07
 1.727928e-05
 -5.741296e-07
 -1.786526e-05
 -6.526546e-07
 -1.933668e-06
 1.551116e-05
 -1.612135e-05
 2.134439e-06
 1.860783e-05
 -2.718628e-06
 8.416397e-07
 1.209630e-06
 -3.690518e-06
 -6.699156e-07
 -1.186290e-06
 1.469344e-05
 1.856955e-05
 -1.771036e-05
 1.930022e-08
 3.362478e-06
 2.011009e-05
 1.623232e-05
 1.445976e-05
 -1.805396e-05
 4.232919e-07
 4.600964e-07
 3.486368e-05
 1.159258e-06
 -2.872629e-06
 -4.384886e-06
 -2.215227e-07
 1.663440e-05
 -2.905247e-08
 -1.598100e-05
 -3.448027e-05
 1.751923e-05
 0.000000e+00
 0.000000e+00
 -2.219743e-05
 -3.674365e-05
 -7.119639e-07
 -3.523921e-07
 -1.441817e-06
 -3.400718e-07
 3.399061e-06
 1.926293e-05
 -1.364489e-06
 -3.803553e-05
 -3.041872e-06
 1.620211e-05
 1.859373e-05
 -1.739365e-06
 -2.413725e-06
 -7.014607e-07
 1.833357e-06
 3.061029e-07
 -2.334836e-06
 1.658698e-05
 2.865575e-06
 1.310123e-06
 -1.676239e-07
 3.734488e-05
 -3.799872e-07
 -2.091593e-06
 -8.912940e-07
 -3.560928e-07
 6.309624e-07
 1.468433e-05
 1.443685e-05
 4.072401e-07
 1.440280e-06
 -1.453189e-05
 -1.769208e-05
 -3.204429e-06
 -1.597482e-06
 1.845597e-06
 4.369444e-06
 -5.095725e-07
 -5.980341e-06
 -1.794602e-05
 1.715718e-05
 -8.718572e-07
 -9.498788e-07
 -2.337911e-06
 -1.504014e-06
 2.882114e-06
 2.689977e-06
 0.000000e+00
 0.000000e+00
 -2.360782e-06
 1.962934e-05
 1.323358e-06
 -1.889347e-06
 -1.817266e-05
 -3.979077e-07
 4.126971e-07
 -1.819718e-05
 -2.061956e-05
 -1.668449e-05
 1.868848e-06
 -8.842444e-07
 -5.080993e-07
 -1.865290e-06
 1.795296e-05
 1.091437e-06
 1.616138e-05
 -1.924550e-05
 -2.341918e-06
 1.187850e-06
 -9.531229e-07
 1.490172e-06
 3.222613e-06
 -9.280828e-07
 -3.894642e-05
 2.777901e-06
 1.143778e-06
 -2.831678e-06
 -1.009291e-06
 -1.814855e-05
 -2.575717e-06
 -3.425183e-06
 -2.316600e-06
 2.497927e-07
 -1.518156e-05
 2.247660e-06
 7.431699e-07
 5.981511e-07
 1.089010e-06
 -3.587010e-05
 -2.430522e-06
 1.734634e-05
 -1.586644e-05
 -1.498459e-06
 -1.769491e-06
 1.964246e-06
 -2.340036e-07
 -3.185325e-06
 -1.774340e-05
 0.000000e+00
 0.000000e+00
 3.099951e-07
 -1.439622e-06
 -3.876429e-05
 1.114531e-06
 8.131295e-07
 -5.448356e-07
 -2.815713e-06
 -3.077124e-06
 4.217488e-07
 2.756231e-06
 -1.441854e-05
 1.907073e-05
 1.798074e-05
 1.714354e-07
 1.752573e-05
 -2.019074e-05
 -1.883853e-05
 -2.216074e-06
 -7.078816e-07
 3.705277e-05
 -1.661133e-05
 3.442528e-05
 -1.746944e-05
 -1.994794e-06
 -2.383043e-06
 1.979921e-05
 -5.457422e-05
 -1.823214e-05
 -4.840468e-07
 -1.282003e-06
 6.759529e-07
 -3.135503e-07
 1.663776e-05
 1.599562e-05
 -4.190564e-07
 1.397484e-06
 -1.952348e-05
 -1.957464e-05
 -1.686465e-05
 -1.641255e-05
 2.461343e-06
 2.621006e-07
 -2.787944e-06
 -1.714144e-05
 2.541710e-06
 2.006425e-05
 -3.619427e-05
 -2.944414e-06
 1.679394e-05
 0.000000e+00
 0.000000e+00
 -2.741412e-06
 -2.059551e-05
 -2.331739e-06
 1.957019e-05
 -3.328041e-05
 8.464791e-07
 -3.069572e-07
 1.549922e-05
 1.683903e-05
 8.897792e-07
 2.035657e-06
 4.548967e-06
 7.772307e-07
 -1.896482e-06
 -2.605517e-06
 -2.146092e-05
 1.807223e-05
 -1.612941e-05
 1.930544e-05
 1.699524e-05
 -1.924389e-05
 -1.190713e-06
 -1.061315e-06
 1.205971e-06
 -1.479046e-06
 1.476756e-05
 -1.958686e-05
 3.547248e-05
 -1.885380e-05
 -1.664287e-06
 1.115793e-06
 2.312324e-06
 2.021249e-07
 -2.318884e-06
 -1.889953e-06
 -4.012719e-06
 -2.139159e-05
 1.933292e-05
 1.889476e-05
 -1.734025e-05
 2.150407e-06
 8.131362e-07
 -2.077625e-05
 1.750155e-05
 3.389280e-06
 -1.863685e-05
 -3.630011e-05
 2.796361e-06
 3.797417e-07
 0.000000e+00
 0.000000e+00
 -1.256742e-06
 -1.386266e-06
 2.303538e-07
 1.581360e-05
 5.274107e-07
 4.313011e-06
 1.014849e-06
 8.237839e-07
 1.424866e-05
 -2.126629e-06
 4.526569e-06
 1.882570e-05
 -2.161338e-05
 -1.860265e-05
 4.858026e-08
 1.310625e-06
 1.819946e-05
 2.958332e-06
 2.044565e-05
 -4.933996e-06
 -3.609565e-06
 4.102675e-07
 1.992135e-05
 -1.643572e-05
 -1.232617e-06
 -3.714439e-06
 -1.903438e-05
 -1.694887e-05
 1.552883e-05
 1.980851e-05
 3.533949e-05
 -8.843363e-07
 -1.886849e-06
 -1.399287e-06
 -1.510215e-06
 -2.241605e-05
 1.589879e-05
 2.014608e-05
 -1.848401e-05
 -3.397688e-07
 1.974421e-05
 1.179701e-07
 6.615374e-07
 3.564996e-05
 -2.370579e-06
 -1.097124e-06
 -1.057923e-07
 2.370571e-06
 1.410204e-06
 0.000000e+00
 0.000000e+00
 2.137655e-06
 3.420764e-06
 1.884804e-05
 1.593710e-05
 1.714256e-05
 7.393743e-07
 2.692575e-06
 1.978892e-05
 -7.888848e-07
 3.313934e-05
 1.733092e-05
 -3.647594e-05
 -2.574737e-06
 3.535377e-05
 6.134441e-07
 2.782785e-07
 -1.812927e-05
 -2.212988e-06
 -5.295928e-05
 -1.888848e-05
 -2.220227e-06
 -9.893042e-07
 8.703797e-07
 -3.573340e-05
 -1.952291e-05
 -2.195067e-05
 1.100485e-06
 4.288412e-06
 8.414128e-07
 5.910280e-07
 -1.778004e-05
 -2.655702e-06
 -1.161636e-06
 1.706448e-05
 -2.197076e-06
 -9.943926e-07
 3.713185e-05
 1.476870e-05
 -3.612239e-06
 2.369696e-06
 3.113159e-06
 -2.921908e-07
 1.665329e-06