<VTKFile type="UnstructuredGrid"  version="0.1"   >
<UnstructuredGrid>  
<Piece  NumberOfPoints="     2601"  NumberOfCells="     5000">  
<Points>  
<DataArray  type="Float64"  NumberOfComponents="3"  format="ascii">  
 0.000000 0.000000 0.000000 
 0.020000 0.000000 0.000000 
 0.040000 0.000000 0.000000 
 0.060000 0.000000 0.000000 
 0.080000 0.000000 0.000000 
 0.100000 0.000000 0.000000 
 0.120000 0.000000 0.000000 
 0.140000 0.000000 0.000000 
 0.160000 0.000000 0.000000 
 0.180000 0.000000 0.000000 
 0.200000 0.000000 0.000000 
 0.220000 0.000000 0.000000 
 0.240000 0.000000 0.000000 
 0.260000 0.000000 0.000000 
 0.280000 0.000000 0.000000 
 0.300000 0.000000 0.000000 
 0.320000 0.000000 0.000000 
 0.340000 0.000000 0.000000 
 0.360000 0.000000 0.000000 
 0.380000 0.000000 0.000000 
 0.400000 0.000000 0.000000 
 0.420000 0.000000 0.000000 
 0.440000 0.000000 0.000000 
 0.460000 0.000000 0.000000 
 0.480000 0.000000 0.000000 
 0.500000 0.000000 0.000000 
 0.520000 0.000000 0.000000 
 0.540000 0.000000 0.000000 
 0.560000 0.000000 0.000000 
 0.580000 0.000000 0.000000 
 0.600000 0.000000 0.000000 
 0.620000 0.000000 0.000000 
 0.640000 0.000000 0.000000 
 0.660000 0.000000 0.000000 
 0.680000 0.000000 0.000000 
 0.700000 0.000000 0.000000 
 0.720000 0.000000 0.000000 
 0.740000 0.000000 0.000000 
 0.760000 0.000000 0.000000 
 0.780000 0.000000 0.000000 
 0.800000 0.000000 0.000000 
 0.820000 0.000000 0.000000 
 0.840000 0.000000 0.000000 
 0.860000 0.000000 0.000000 
 0.880000 0.000000 0.000000 
 0.900000 0.000000 0.000000 
 0.920000 0.000000 0.000000 
 0.940000 0.000000 0.000000 
 0.960000 0.000000 0.000000 
 0.980000 0.000000 0.000000 
 1.000000 0.000000 0.000000 
 0.000000 0.020000 0.000000 
 0.020000 0.020000 0.000000 
 0.040000 0.020000 0.000000 
 0.060000 0.020000 0.000000 
 0.080000 0.020000 0.000000 
 0.100000 0.020000 0.000000 
 0.120000 0.020000 0.000000 
 0.140000 0.020000 0.000000 
 0.160000 0.020000 0.000000 
 0.180000 0.020000 0.000000 
 0.200000 0.020000 0.000000 
 0.220000 0.020000 0.000000 
 0.240000 0.020000 0.000000 
 0.260000 0.020000 0.000000 
 0.280000 0.020000 0.000000 
 0.300000 0.020000 0.000000 
 0.320000 0.020000 0.000000 
 0.340000 0.020000 0.000000 
 0.360000 0.020000 0.000000 
 0.380000 0.020000 0.000000 
 0.400000 0.020000 0.000000 
 0.420000 0.020000 0.000000 
 0.440000 0.020000 0.000000 
 0.460000 0.020000 0.000000 
 0.480000 0.020000 0.000000 
 0.500000 0.020000 0.000000 
 0.520000 0.020000 0.000000 
 0.540000 0.020000 0.000000 
 0.560000 0.020000 0.000000 
 0.580000 0.020000 0.000000 
 0.600000 0.020000 0.000000 
 0.620000 0.020000 0.000000 
 0.640000 0.020000 0.000000 
 0.660000 0.020000 0.000000 
 0.680000 0.020000 0.000000 
 0.700000 0.020000 0.000000 
 0.720000 0.020000 0.000000 
 0.740000 0.020000 0.000000 
 0.760000 0.020000 0.000000 
 0.780000 0.020000 0.000000 
 0.800000 0.020000 0.000000 
 0.820000 0.020000 0.000000 
 0.840000 0.020000 0.000000 
 0.860000 0.020000 0.000000 
 0.880000 0.020000 0.000000 
 0.900000 0.020000 0.000000 
 0.920000 0.020000 0.000000 
 0.940000 0.020000 0.000000 
 0.960000 0.020000 0.000000 
 0.980000 0.020000 0.000000 
 1.000000 0.020000 0.000000 
 0.000000 0.040000 0.000000 
 0.020000 0.040000 0.000000 
 0.040000 0.040000 0.000000 
 0.060000 0.040000 0.000000 
 0.080000 0.040000 0.000000 
 0.100000 0.040000 0.000000 
 0.120000 0.040000 0.000000 
 0.140000 0.040000 0.000000 
 0.160000 0.040000 0.000000 
 0.180000 0.040000 0.000000 
 0.200000 0.040000 0.000000 
 0.220000 0.040000 0.000000 
 0.240000 0.040000 0.000000 
 0.260000 0.040000 0.000000 
 0.280000 0.040000 0.000000 
 0.300000 0.040000 0.000000 
 0.320000 0.040000 0.000000 
 0.340000 0.040000 0.000000 
 0.360000 0.040000 0.000000 
 0.380000 0.040000 0.000000 
 0.400000 0.040000 0.000000 
 0.420000 0.040000 0.000000 
 0.440000 0.040000 0.000000 
 0.460000 0.040000 0.000000 
 0.480000 0.040000 0.000000 
 0.500000 0.040000 0.000000 
 0.520000 0.040000 0.000000 
 0.540000 0.040000 0.000000 
 0.560000 0.040000 0.000000 
 0.580000 0.040000 0.000000 
 0.600000 0.040000 0.000000 
 0.620000 0.040000 0.000000 
 0.640000 0.040000 0.000000 
 0.660000 0.040000 0.000000 
 0.680000 0.040000 0.000000 
 0.700000 0.040000 0.000000 
 0.720000 0.040000 0.000000 
 0.740000 0.040000 0.000000 
 0.760000 0.040000 0.000000 
 0.780000 0.040000 0.000000 
 0.800000 0.040000 0.000000 
 0.820000 0.040000 0.000000 
 0.840000 0.040000 0.000000 
 0.860000 0.040000 0.000000 
 0.880000 0.040000 0.000000 
 0.900000 0.040000 0.000000 
 0.920000 0.040000 0.000000 
 0.940000 0.040000 0.000000 
 0.960000 0.040000 0.000000 
 0.980000 0.040000 0.000000 
 1.000000 0.040000 0.000000 
 0.000000 0.060000 0.000000 
 0.020000 0.060000 0.000000 
 0.040000 0.060000 0.000000 
 0.060000 0.060000 0.000000 
 0.080000 0.060000 0.000000 
 0.100000 0.060000 0.000000 
 0.120000 0.060000 0.000000 
 0.140000 0.060000 0.000000 
 0.160000 0.060000 0.000000 
 0.180000 0.060000 0.000000 
 0.200000 0.060000 0.000000 
 0.220000 0.060000 0.000000 
 0.240000 0.060000 0.000000 
 0.260000 0.060000 0.000000 
 0.280000 0.060000 0.000000 
 0.300000 0.060000 0.000000 
 0.320000 0.060000 0.000000 
 0.340000 0.060000 0.000000 
 0.360000 0.060000 0.000000 
 0.380000 0.060000 0.000000 
 0.400000 0.060000 0.000000 
 0.420000 0.060000 0.000000 
 0.440000 0.060000 0.000000 
 0.460000 0.060000 0.000000 
 0.480000 0.060000 0.000000 
 0.500000 0.060000 0.000000 
 0.520000 0.060000 0.000000 
 0.540000 0.060000 0.000000 
 0.560000 0.060000 0.000000 
 0.580000 0.060000 0.000000 
 0.600000 0.060000 0.000000 
 0.620000 0.060000 0.000000 
 0.640000 0.060000 0.000000 
 0.660000 0.060000 0.000000 
 0.680000 0.060000 0.000000 
 0.700000 0.060000 0.000000 
 0.720000 0.060000 0.000000 
 0.740000 0.060000 0.000000 
 0.760000 0.060000 0.000000 
 0.780000 0.060000 0.000000 
 0.800000 0.060000 0.000000 
 0.820000 0.060000 0.000000 
 0.840000 0.060000 0.000000 
 0.860000 0.060000 0.000000 
 0.880000 0.060000 0.000000 
 0.900000 0.060000 0.000000 
 0.920000 0.060000 0.000000 
 0.940000 0.060000 0.000000 
 0.960000 0.060000 0.000000 
 0.980000 0.060000 0.000000 
 1.000000 0.060000 0.000000 
 0.000000 0.080000 0.000000 
 0.020000 0.080000 0.000000 
 0.040000 0.080000 0.000000 
 0.060000 0.080000 0.000000 
 0.080000 0.080000 0.000000 
 0.100000 0.080000 0.000000 
 0.120000 0.080000 0.000000 
 0.140000 0.080000 0.000000 
 0.160000 0.080000 0.000000 
 0.180000 0.080000 0.000000 
 0.200000 0.080000 0.000000 
 0.220000 0.080000 0.000000 
 0.240000 0.080000 0.000000 
 0.260000 0.080000 0.000000 
 0.280000 0.080000 0.000000 
 0.300000 0.080000 0.000000 
 0.320000 0.080000 0.000000 
 0.340000 0.080000 0.000000 
 0.360000 0.080000 0.000000 
 0.380000 0.080000 0.000000 
 0.400000 0.080000 0.000000 
 0.420000 0.080000 0.000000 
 0.440000 0.080000 0.000000 
 0.460000 0.080000 0.000000 
 0.480000 0.080000 0.000000 
 0.500000 0.080000 0.000000 
 0.520000 0.080000 0.000000 
 0.540000 0.080000 0.000000 
 0.560000 0.080000 0.000000 
 0.580000 0.080000 0.000000 
 0.600000 0.080000 0.000000 
 0.620000 0.080000 0.000000 
 0.640000 0.080000 0.000000 
 0.660000 0.080000 0.000000 
 0.680000 0.080000 0.000000 
 0.700000 0.080000 0.000000 
 0.720000 0.080000 0.000000 
 0.740000 0.080000 0.000000 
 0.760000 0.080000 0.000000 
 0.780000 0.080000 0.000000 
 0.800000 0.080000 0.000000 
 0.820000 0.080000 0.000000 
 0.840000 0.080000 0.000000 
 0.860000 0.080000 0.000000 
 0.880000 0.080000 0.000000 
 0.900000 0.080000 0.000000 
 0.920000 0.080000 0.000000 
 0.940000 0.080000 0.000000 
 0.960000 0.080000 0.000000 
 0.980000 0.080000 0.000000 
 1.000000 0.080000 0.000000 
 0.000000 0.100000 0.000000 
 0.020000 0.100000 0.000000 
 0.040000 0.100000 0.000000 
 0.060000 0.100000 0.000000 
 0.080000 0.100000 0.000000 
 0.100000 0.100000 0.000000 
 0.120000 0.100000 0.000000 
 0.140000 0.100000 0.000000 
 0.160000 0.100000 0.000000 
 0.180000 0.100000 0.000000 
 0.200000 0.100000 0.000000 
 0.220000 0.100000 0.000000 
 0.240000 0.100000 0.000000 
 0.260000 0.100000 0.000000 
 0.280000 0.100000 0.000000 
 0.300000 0.100000 0.000000 
 0.320000 0.100000 0.000000 
 0.340000 0.100000 0.000000 
 0.360000 0.100000 0.000000 
 0.380000 0.100000 0.000000 
 0.400000 0.100000 0.000000 
 0.420000 0.100000 0.000000 
 0.440000 0.100000 0.000000 
 0.460000 0.100000 0.000000 
 0.480000 0.100000 0.000000 
 0.500000 0.100000 0.000000 
 0.520000 0.100000 0.000000 
 0.540000 0.100000 0.000000 
 0.560000 0.100000 0.000000 
 0.580000 0.100000 0.000000 
 0.600000 0.100000 0.000000 
 0.620000 0.100000 0.000000 
 0.640000 0.100000 0.000000 
 0.660000 0.100000 0.000000 
 0.680000 0.100000 0.000000 
 0.700000 0.100000 0.000000 
 0.720000 0.100000 0.000000 
 0.740000 0.100000 0.000000 
 0.760000 0.100000 0.000000 
 0.780000 0.100000 0.000000 
 0.800000 0.100000 0.000000 
 0.820000 0.100000 0.000000 
 0.840000 0.100000 0.000000 
 0.860000 0.100000 0.000000 
 0.880000 0.100000 0.000000 
 0.900000 0.100000 0.000000 
 0.920000 0.100000 0.000000 
 0.940000 0.100000 0.000000 
 0.960000 0.100000 0.000000 
 0.980000 0.100000 0.000000 
 1.000000 0.100000 0.000000 
 0.000000 0.120000 0.000000 
 0.020000 0.120000 0.000000 
 0.040000 0.120000 0.000000 
 0.060000 0.120000 0.000000 
 0.080000 0.120000 0.000000 
 0.100000 0.120000 0.000000 
 0.120000 0.120000 0.000000 
 0.140000 0.120000 0.000000 
 0.160000 0.120000 0.000000 
 0.180000 0.120000 0.000000 
 0.200000 0.120000 0.000000 
 0.220000 0.120000 0.000000 
 0.240000 0.120000 0.000000 
 0.260000 0.120000 0.000000 
 0.280000 0.120000 0.000000 
 0.300000 0.120000 0.000000 
 0.320000 0.120000 0.000000 
 0.340000 0.120000 0.000000 
 0.360000 0.120000 0.000000 
 0.380000 0.120000 0.000000 
 0.400000 0.120000 0.000000 
 0.420000 0.120000 0.000000 
 0.440000 0.120000 0.000000 
 0.460000 0.120000 0.000000 
 0.480000 0.120000 0.000000 
 0.500000 0.120000 0.000000 
 0.520000 0.120000 0.000000 
 0.540000 0.120000 0.000000 
 0.560000 0.120000 0.000000 
 0.580000 0.120000 0.000000 
 0.600000 0.120000 0.000000 
[...]
<PointData  Scalars="U"> 
<DataArray  type="Float64"  Name="U"  format="ascii"> 
 0.000000e+00
 0.000000e+00
 0.000000e+00
 0.000000e+00
 0.000000e+00
 0.000000e+00
 0.000000e+00
 0.000000e+00
 0.000000e+00
 0.000000e+00
 0.000000e+00
 0.000000e+00
 0.000000e+00
 0.000000e+00
 0.000000e+00
 0.000000e+00
 0.000000e+00
 0.000000e+00
 0.000000e+00
 0.000000e+00
 0.000000e+00
 0.000000e+00
 0.000000e+00
 0.000000e+00
 0.000000e+00
 0.000000e+00
 0.000000e+00
 0.000000e+00
 0.000000e+00
 0.000000e+00
 0.000000e+00
 0.000000e+00
 0.000000e+00
 0.000000e+00
 0.000000e+00
 0.000000e+00
 0.000000e+00
 0.000000e+00
 0.000000e+00
 0.000000e+00
 0.000000e+00
 0.000000e+00
 0.000000e+00
 0.000000e+00
 0.000000e+00
 0.000000e+00
 0.000000e+00
 0.000000e+00
 0.000000e+00
 0.000000e+00
 0.000000e+00
 0.000000e+00
 -3.174347e-06
 -2.073269e-05
 -1.787667e-05
 -8.546909e-08
 -1.260504e-06
 -6.237095e-08
 -4.879334e-08
 1.790356e-05
 7.716423e-07
 -8.009776e-08
 -5.006798e-07
 -1.562518e-06
 7.058004e-07
 -2.852222e-07
 -3.916937e-06
 -3.714844e-06
 -9.049851e-07
 -5.787993e-08
 6.139675e-07
 1.888155e-06
 2.147200e-05
 4.017370e-06
 1.602167e-06
 1.879046e-05
 9.401665e-07
 3.410458e-06
 1.926271e-05
 -1.906162e-05
 -1.688966e-05
 1.183302e-06
 -1.536116e-05
 1.924729e-05
 2.077442e-06
 2.496794e-06
 2.074593e-05
 1.393167e-06
 -1.690899e-05
 -1.589298e-05
 3.027634e-07
 -5.570596e-07
 3.666378e-08
 2.695970e-07
 5.663497e-07
 2.939150e-07
 8.690285e-07
 5.828691e-09
 -3.672961e-07
 2.862937e-07
 1.349105e-07
 0.000000e+00
 0.000000e+00
 -2.860913e-06
 -1.612541e-06
 1.361422e-06
 1.072750e-06
 2.022127e-08
 1.672765e-05
 1.225629e-06
 1.852920e-05
 -9.958484e-07
 -4.068238e-07
 -8.959948e-07
 -1.118998e-06
 1.663449e-05
 -1.724531e-05
 -1.346465e-06
 -2.207314e-06
 -6.668026e-07
 1.990521e-07
 -1.229344e-07
 2.750937e-06
 3.538391e-06
 1.413491e-06
 2.191692e-06
 1.465072e-06
 9.213137e-07
 3.734931e-05
 -4.209013e-07
 -2.806837e-06
 1.759034e-05
 -3.383449e-05
 2.916945e-06
 4.054561e-06
 3.112054e-06
 2.236399e-06
 1.825139e-05
 -8.831711e-07
 2.968573e-07
 1.181856e-06
 -1.645903e-05
 6.763469e-07
 4.214043e-07
 -4.788382e-07
 2.807167e-06
 8.231157e-07
 -2.629509e-06
 -1.745682e-05
 1.399758e-06
 1.676710e-06
 2.154871e-07
 0.000000e+00
 0.000000e+00
 5.583176e-07
 1.959538e-05
 -1.210940e-06
 -1.372515e-06
 4.418168e-07
 6.646088e-07
 1.802806e-05
 -2.709779e-07
 -4.498022e-07
 4.203626e-07
 -1.751324e-06
 -1.586341e-06
 -2.025617e-06
 -1.806358e-06
 -1.578859e-05
 -1.156913e-06
 6.710002e-07
 1.395905e-06
 5.745737e-07
 1.942768e-05
 3.433047e-06
 1.656697e-06
 3.126594e-07
 1.957586e-07
 3.049533e-06
 3.146596e-06
 -1.162729e-06
 -1.483288e-06
 -3.011878e-06
 -1.826684e-06
 3.283844e-06
 3.830641e-06
 3.830062e-06
 -1.296082e-05
 1.864353e-05
 -1.372003e-06
 -1.088221e-06
 -1.989693e-05
 8.065632e-07
 2.796350e-06
 9.076042e-07
 5.187580e-07
 1.784491e-05
 -3.496108e-05
 -6.932853e-07
 1.790299e-05
 2.672264e-06
 3.672667e-07
 -1.798091e-05
 0.000000e+00
 0.000000e+00
 3.495918e-06
 1.906787e-07
 -3.595752e-05
 1.745658e-05
 2.514039e-07
 1.949115e-05
 -2.930977e-07
 -3.658151e-06
 -9.867762e-07
 -1.779397e-05
 -1.877311e-05
 -2.366354e-06
 -1.309708e-06
 -8.433311e-07
 1.725953e-07
 -1.559397e-05
 1.871123e-05
 -1.627811e-05
 1.830550e-06
 1.361473e-06
 2.494063e-06
 -1.616559e-05
 -2.312896e-07
 9.554523e-07
 1.873592e-05
 8.891450e-07
 -1.847213e-05
 -1.893396e-05
 2.985315e-07
 3.554455e-07
 2.048883e-05
 2.012912e-05
 7.380029e-07
 3.801644e-06
 -1.536438e-05
 -3.167781e-06
 -1.964134e-05
 1.058351e-06
 2.003071e-05
 6.636324e-07
 5.506549e-07
 9.756088e-07
 -4.012141e-07
 -1.276175e-06
 2.541030e-06
 1.797113e-06
 -1.861914e-06
 -1.880412e-05
 6.695596e-07
 0.000000e+00
 0.000000e+00
 -1.436362e-05
 -2.185291e-07
 1.168825e-06
 2.424646e-06
 -1.818804e-06
 -6.383014e-07
 -1.926652e-05
 -6.621157e-07
 1.737712e-05
 -1.956907e-06
 -1.703056e-06
 4.528829e-07
 1.635135e-05
 -1.051866e-06
 -2.557521e-07
 1.560279e-06
 3.845211e-06
 1.821389e-07
 1.701031e-06
 3.360769e-07
 -6.659806e-07
 -3.339099e-05
 3.161143e-06
 1.358095e-06
 -1.482252e-07
 -6.323355e-07
 1.598790e-06
 1.912808e-05
 1.851188e-05
 1.633220e-06
 1.928282e-05
 -1.773221e-05
 -1.448791e-06
 1.374331e-06
 -1.680713e-05
 1.623258e-06
 1.908073e-05
 2.078653e-05
 5.853999e-07
 -3.027569e-06
 -4.274933e-07
 5.814853e-07
 -4.782492e-07
 -1.909450e-05
 4.661626e-07
 1.631259e-06
 -1.735633e-05
 1.795784e-05
 1.384885e-06
 0.000000e+00
 0.000000e+00
 3.719075e-07
 2.106383e-06
 4.767204e-07
 8.882605e-07
 -2.057132e-06
 1.419879e-05
 1.414326e-06
 1.952130e-05
 -1.771794e-06
 -1.984974e-05
 -1.394532e-06
 1.930227e-05
 3.147758e-08
 1.427661e-05
 -1.380537e-06
 -1.562462e-07
 6.786539e-07
 -3.392999e-05
 1.069798e-06
 -1.914033e-05
 -8.643308e-07
 2.992214e-06
 5.161358e-06
 3.852077e-06
 1.888079e-05
 1.713562e-05
 1.140724e-06
 -1.593905e-05
 -1.356112e-06
 1.069520e-07
 -6.285719e-07
 -8.134952e-07
 1.992255e-06
 1.741740e-05
 -1.673172e-05
 2.053341e-05
 -1.518761e-05
 3.672784e-07
 -1.800481e-05
 -3.540239e-07
 1.583533e-05
 -5.947022e-07
 -5.890589e-07
 -1.489909e-06
 1.767198e-05
 9.598016e-07
 2.473764e-06
 3.116772e-06
 -4.894696e-07
 0.000000e+00
 0.000000e+00
 1.474782e-05
 1.943624e-07
 -2.232107e-07
 -1.960435e-06
 -1.856347e-05
 1.687901e-05
 1.706629e-05
 -1.837152e-05
 -3.853043e-06
 -5.612424e-07
 2.255410e-06
 1.832173e-05
 -1.883780e-05
 -2.296281e-06
 -3.770024e-06
 -1.201234e-06
 -7.396750e-07
 1.121380e-06
 4.385653e-06
 2.690906e-06
 3.634296e-05
 7.952348e-07
 2.534386e-06
 3.472201e-06
 -1.482887e-05
 -1.457936e-06
 -1.467579e-06
 1.298868e-06
 1.729726e-06
 1.817954e-05
 4.689815e-07
 1.666698e-05
 8.999438e-07
 3.157986e-07
 -1.265448e-06
 8.727320e-07
 6.866664e-07
 2.792861e-06
 1.278250e-06
 1.844277e-06
 -1.055418e-07
 1.573553e-05
 -4.692475e-07
 -2.085979e-07
 1.789719e-05
 1.727846e-05
 3.004887e-07
 3.581318e-07
 -1.736133e-05
 0.000000e+00
 0.000000e+00
 -2.253302e-05
 1.238363e-05
 -3.715351e-05
 -1.071023e-06
 1.236327e-06
 1.915690e-05
 -2.947397e-06
 -2.782263e-06
 2.319216e-07
 1.960707e-05
 -9.292270e-07
 -3.198339e-06
 -2.019255e-05
 2.392256e-07
 -3.494020e-07
 1.531642e-05
 -5.753024e-07
 1.382335e-06
 1.861177e-06
 -1.423866e-05
 -1.598038e-05
 -9.863324e-07
 2.388448e-06
 1.727466e-06
 4.039858e-06
 2.634433e-06
 1.788549e-05
 5.154872e-07
 -2.137526e-07
 7.769573e-07
 1.792062e-06
 1.102516e-06
 1.605207e-05
 1.017376e-06
 2.262949e-07
 1.532377e-05
 -2.992244e-07
 1.460527e-06
 -1.498868e-05
 2.516655e-06
 7.023378e-07
 -9.820034e-07
 -9.654007e-07
 1.958447e-06
 1.895793e-05
 -1.616959e-06
 -2.029861e-06
 -1.271827e-06
 -2.615464e-07
 0.000000e+00
 0.000000e+00
 -2.384985e-05
 -3.981163e-06
 -4.942116e-06
 2.254483e-06
 3.134222e-06
 2.602771e-07
 -2.711853e-06
 -3.965320e-06
 -1.040383e-07
 1.065615e-06
 -3.788520e-05
 1.530694e-05
 -3.601177e-07
 1.844472e-05
 3.265179e-07
 -1.217132e-06
 1.555051e-05
 4.192419e-07
 4.775514e-07
 7.978403e-07
 2.375740e-06
 2.133660e-06
 -8.276085e-07
 -1.592378e-05
 3.431167e-06
 -3.215011e-05
 1.451395e-06
 -1.751595e-05
 1.944244e-06
 1.806350e-05
 -7.225347e-07
 -1.940579e-05
 -1.735068e-05
 2.454444e-06
 -1.479740e-05
 -1.063578e-06
 1.457331e-05
 -9.690992e-08
 5.401461e-07
 -1.582952e-05
 -1.496009e-05
 -2.462889e-07
 -8.432308e-07
 5.088816e-06
 1.926588e-06
 -2.827847e-06
 -1.311506e-06
 -6.400832e-07
 -1.040878e-07
 0.000000e+00
 0.000000e+00
 -5.024563e-06
 -7.255765e-07
 2.901366e-07
 3.576420e-05
 8.422374e-07
 -3.722819e-07
 -1.586918e-06
 -1.448655e-06
 3.401657e-05
 -1.185380e-06
 4.299072e-07
 1.774628e-05
 -8.797437e-07
 -2.069926e-07
 3.215327e-07
 -3.450497e-06
 -2.211279e-06
 1.266535e-06
 1.269175e-06
 1.251081e-06
 -6.560145e-07
 1.308265e-06
 1.940895e-06
 3.590820e-05
 5.316960e-07
 1.529244e-06
 3.355848e-06
 1.380941e-06
 1.651808e-06
 -1.673094e-05
 -1.364308e-06
 -1.774410e-06
 3.538473e-05
 2.199181e-06
 -1.601479e-05
 -1.606454e-05
 -2.991023e-06
 -2.284009e-06
 -1.831915e-05
 -6.198629e-07
 3.607763e-06
 -1.388705e-05
 1.775233e-05
 1.869484e-05
 -3.341512e-05
 7.803227e-07
 -1.683663e-06
 4.374951e-07
 1.006440e-06
 0.000000e+00
 0.000000e+00
 1.627048e-07
 1.780745e-05
 1.916969e-06
 1.668047e-06
 -4.462048e-08
 -4.308157e-07
 -3.329177e-06
 -3.212976e-07
 4.331825e-07
 -3.894794e-06
 -2.012071e-05
 -1.976626e-05
 -2.905036e-06
 -1.867682e-05
 1.960047e-06
 -3.413641e-05
 5.045948e-05
 2.071259e-06
 1.816232e-06
 2.849567e-06
 4.143165e-06
 3.561897e-05
 2.657269e-06
 8.045550e-07
 -4.010390e-06
 4.703809e-07
 3.381439e-06
 1.173888e-06
 -4.873013e-07
 2.022030e-05
 2.028192e-06
 -2.365392e-06
 -3.440138e-06
 -2.357744e-06
 -1.496138e-05
 1.834249e-06
 1.835265e-06
 3.309902e-05
 -1.063282e-06
 2.015234e-05
 1.880690e-05
 2.385770e-06
 2.757193e-06
 1.593123e-05
 -5.394182e-07
 5.606837e-08
 -1.882030e-05
 1.872788e-05
 -1.648982e-05
 0.000000e+00
 0.000000e+00
 3.667136e-06
 6.795986e-07
 -9.185885e-07
 -2.670004e-07
 -1.883106e-05
 -3.567763e-05
 -1.634574e-05
 1.732079e-05
 -1.914417e-06
 -2.006733e-05
 -8.336552e-07
 1.901820e-05
 1.516999e-05
 1.528650e-05
 1.781368e-05
 -1.454934e-05
 1.169062e-06
 1.251911e-05
 -3.554721e-05
 2.050067e-06
 -3.095013e-05
 -3.252904e-05
 1.392785e-06
 -1.390421e-05
 -3.777410e-07
 1.721008e-05
 3.456331e-06
 -1.715060e-05
 6.825424e-07
 -4.929108e-07
 -3.549885e-05
 -1.857157e-05
 1.370230e-05
 1.605512e-05
 3.695060e-06
 -1.337782e-05
 1.976964e-05
 -1.841587e-05
 1.406580e-05
 2.395400e-06
 1.449101e-06
 -1.296993e-06
 -6.140123e-07
 1.478473e-06
 2.003665e-06
 7.879717e-07
 3.454884e-05
 1.665845e-05
 -1.457403e-06
 0.000000e+00
 0.000000e+00
 2.079346e-05
 1.492214e-06
 1.669268e-05
 -3.761797e-06
 -4.864771e-06
 -1.513892e-06
 4.838688e-06
 -1.559283e-05
 -2.163122e-06
 -1.406821e-06
 -1.463931e-06
 -1.523680e-05
 -1.664616e-05
 1.306563e-05
 -2.835435e-06
 7.408838e-07
 2.080222e-06
 1.516763e-05
 1.541655e-05
 1.842624e-05
 -1.988516e-06
 4.066623e-06
 4.927534e-06
 -1.557399e-05
 -3.247437e-05
 -5.402161e-07
 -2.306349e-05
 -5.182047e-05
 4.854768e-06
 -1.615201e-05
 1.757154e-05
 -1.548754e-05
 2.017355e-05
 3.488882e-05
 1.628341e-05
 -1.562810e-05
 3.102889e-06
 1.009763e-06
 1.936422e-05
 3.626641e-05
 5.655430e-07
 -3.924787e-08
 1.837073e-05
 3.670441e-05
 3.797978e-07
 -1.687903e-05
 -1.834549e-05
 -2.050681e-06
 -1.416608e-06
 0.000000e+00
 0.000000e+00
 -1.727515e-05
 1.152810e-06
 -1.706999e-05
 -5.012503e-06
 -2.109918e-06
 1.686170e-05
 1.571026e-05
 -1.909562e-05
 4.237237e-07
 -1.829223e-05
 4.677304e-07
 3.560092e-05
 -1.474284e-05
 8.139058e-07
 3.242985e-05
 -2.933129e-07
 7.965412e-07
 -9.018248e-07
 -2.022020e-06
 -2.681930e-07
 1.204574e-06
 3.582094e-05
 5.948917e-07
 5.750778e-07
 1.247521e-06
 9.427256e-07
 -2.256899e-06
 5.403976e-05
 4.486913e-06
 3.577875e-06
 -1.558924e-05
 1.161221e-06
 2.212940e-05
 5.609467e-07
 -2.375874e-06
 -1.556399e-06
 1.040928e-06
 -1.602773e-05
 5.724851e-06
 1.898643e-06
 -2.030684e-05
 2.169451e-06
 2.785213e-06
 -1.115189e-06
 -1.987524e-05
 -1.370522e-06
 7.685047e-07
 1.729705e-05
 -1.914716e-05
 0.000000e+00
 0.000000e+00
 -2.460140e-06
 8.936611e-07
 -1.579943e-05
 -1.815811e-05
 1.562073e-05
 -1.668519e-05
 -2.465609e-06
 -2.559618e-06
 1.845151e-05
 -6.840056e-08
 1.916602e-05
 -1.814316e-05
 -1.750534e-06
 -1.578159e-05
 1.259922e-07
 -1.505774e-06
 -9.163906e-07
 -1.335571e-08
 1.800127e-05
 1.865452e-05
 1.486912e-06
 -1.809381e-05
 -2.429578e-06
 -1.741023e-05
 -1.645482e-05
 1.453711e-06
 2.897380e-06
 -1.631686e-07
 -2.379035e-06
 8.337808e-07
 -1.697421e-05
 3.508663e-06
 2.541733e-06
 1.928289e-06
 -1.562283e-06
 -1.944252e-05
 -8.297583e-07
 2.900800e-07
 2.054549e-05
 -3.535838e-05
 -1.697323e-05
 3.186192e-06
 -1.440863e-05
 2.454141e-06
 -7.531035e-07
 -1.834829e-05
 -5.221015e-07
 -2.058767e-05
 -2.206685e-06
 0.000000e+00
 0.000000e+00
 -2.345181e-06
 -2.115605e-06
 -1.938034e-05
 -3.348745e-05
 -7.207268e-07
 -1.084746e-06
 -1.564496e-05
 7.245212e-07
 -4.739079e-07
 -1.942705e-05
 -5.451898e-07
 -1.405188e-06
 5.122158e-07
 1.011398e-07
 1.900705e-05
 1.133281e-06
 1.619458e-06
 1.731323e-05
 -4.795790e-07
 -2.342728e-06
 -1.978836e-05
 2.871776e-07
 4.509782e-07
 5.790588e-08
 2.507633e-06
 3.133447e-06
 1.334344e-06
 1.693045e-06
 1.816768e-05
 -1.025529e-06
 2.647206e-06
 1.870051e-05
 -1.564458e-06
 5.710743e-07
 -3.473583e-05
 1.851579e-05
 1.451092e-06
 1.994818e-05
 1.637335e-05
 -2.195528e-06
 1.960619e-05
 9.875159e-07
 1.205516e-06
 -1.540529e-05
 -3.247047e-05
 1.621688e-06
 -1.292393e-06
 -1.817550e-06
 1.774820e-05
 0.000000e+00
 0.000000e+00
 -2.287049e-06
 -1.867944e-05
 -1.220266e-06
 1.328036e-06
 2.707861e-06
 1.740849e-05
 8.449581e-07
 2.693880e-06
 -1.735326e-06
 -1.598611e-06
 1.965448e-05
 1.120004e-06
 1.888412e-05
 -2.691020e-07
 1.672225e-05
 -4.666117e-07
 1.283969e-06
 -1.671480e-05
 1.524895e-05
 -1.900834e-06
 1.579866e-05
 -3.471397e-07
 1.167529e-06
 1.871935e-06
 8.603878e-07
 2.182876e-06
 2.951725e-06
 2.301108e-05
 1.577555e-07
 -4.946330e-06
 -6.244493e-07
 -3.425729e-05
 1.856403e-05
 1.435508e-05
 -5.543114e-07
 5.561399e-06
 3.592162e-06
 1.854072e-05
 -2.179857e-05
 -4.503790e-06
 -1.848704e-05
 4.728963e-07
 6.936781e-08
 -1.141412e-06
 1.795383e-06
 -3.057513e-05
 -1.650797e-05
 -7.663835e-07
 -2.126361e-08
 0.000000e+00
 0.000000e+00
 1.581962e-05
 1.886131e-05
 1.030207e-06
 -6.907366e-07
 5.606264e-07
 9.477703e-07
 3.115464e-07
 5.691285e-07
 -1.776154e-05
 2.032093e-05
 1.905627e-05
 -1.028928e-06
 -2.078357e-07
 -1.793905e-05
 1.673267e-05
 -3.033034e-06
 -2.839459e-07
 2.816188e-06
 3.198614e-06
 1.577870e-05
 -1.381680e-06
 1.592209e-05
 1.690779e-05
 1.549168e-06
 3.032334e-06
 1.992146e-05
 9.818168e-07
 7.941658e-08
 -5.312337e-05
 -2.806790e-08
 1.696304e-05
 1.990424e-05
 2.146446e-05
 -1.955301e-05
 3.415968e-05
 2.035197e-05
 1.897284e-06
 -1.844135e-05
 -2.108985e-06
 1.651207e-05
 3.409659e-05
 1.793431e-05
 -8.003158e-07
 -1.075911e-06
 -6.304924e-07
 -7.961454e-07
 -1.322782e-05
 3.446279e-06
 1.771302e-05
 0.000000e+00
 0.000000e+00
 -2.843236e-06
 -2.352298e-06
 -3.469564e-05
 1.289153e-06
 1.727883e-06
 1.908240e-05
 8.890966e-07
 -9.576607e-07
 1.738937e-06
 2.105691e-05
 -1.708485e-05
 -2.732780e-06
 -1.808292e-06
 1.127081e-06
 -4.436268e-07
 -2.797425e-06
 1.737129e-05
 2.212925e-06
 2.935066e-06
 -1.674062e-05
 1.638943e-05
 2.466137e-06
 1.783902e-05
 1.575362e-05
 -8.129875e-07
 -1.773385e-05
 -1.925603e-05
 -1.776722e-06
 1.363661e-06
 4.953533e-06
 2.320844e-06
 3.887277e-06
 5.945032e-07
 -2.349616e-07
 1.969180e-05
 -3.733820e-06
 -1.889503e-05
 1.979681e-06
 2.039707e-06
 2.229223e-07
 -1.506298e-06
 -2.905715e-06
 -2.343729e-06
 -2.434888e-06
 -1.010816e-06
 -1.744179e-05
 1.896811e-05
 -1.371428e-05
 1.468574e-06
 0.000000e+00
 0.000000e+00
 -1.042582e-06
 3.040834e-05
 -6.096521e-07
 4.245406e-06
 3.287551e-06
 3.176281e-06
 1.357544e-06
 1.413419e-06
 1.933024e-05
 -8.632161e-07
 -1.767412e-06
 -1.674432e-05
 1.742890e-05
 4.183051e-07
 -6.547982e-07
 1.738445e-05
 1.897456e-05
 1.700049e-05
 2.104716e-07
 9.136921e-07
 7.593454e-07
 1.892806e-05
 -1.411043e-05
 -1.187350e-06
 -3.641942e-06
 1.548298e-05
 -5.575752e-07
 2.074094e-05
 1.286036e-06
 -1.376992e-06
 -1.728308e-07
 1.226960e-06
 -2.919534e-05
 2.459470e-06
 -2.232411e-06
 -2.042295e-05
 1.692919e-05
 -1.517761e-05
 -1.939343e-05
 -1.906640e-05
 1.614627e-06
 7.136897e-07
 -5.504073e-07
 -1.014691e-06
 1.589739e-05
 2.762139e-07
 2.091100e-07
 6.348734e-07
 2.948842e-06
 0.000000e+00
 0.000000e+00
 -1.592590e-05
 -5.617382e-08
 1.370783e-05
 9.584541e-08
 3.749790e-06
 2.019512e-06
 -1.666252e-05
 -1.575849e-05
 -1.691700e-05
 -1.839110e-05
 7.507143e-07
 1.318733e-06
 4.329653e-07
 1.337053e-06
 1.565430e-06
 1.820575e-05
 1.928366e-05
 2.102918e-07
 1.648678e-05
 1.608168e-08
 1.798145e-05
 1.676147e-05
 3.451739e-07
 -1.505611e-05
 -3.987763e-07
 -1.471296e-06
 -1.254003e-06
 1.697479e-05
 -3.557421e-05
 7.888358e-07
 1.776090e-05
 1.635358e-05
 1.787222e-05
 -5.002531e-05
 -5.503572e-07
 4.673298e-07
 5.734288e-07
 -2.739877e-07
 -1.673620e-05
 3.596485e-05
 1.957219e-05
 9.910801e-07
 2.866212e-07
 2.738137e-07
 -1.636184e-06
 -2.240857e-06
 1.007765e-06
 1.986462e-05
 6.865077e-07
 0.000000e+00
 0.000000e+00
 -1.607838e-05
 3.115503e-06
 -1.694929e-05
 1.563099e-05
 1.852267e-06
 -1.624424e-05
 1.982277e-06
 2.500853e-06
 -1.225619e-08
 1.268656e-06
 2.670764e-06
 -1.730410e-05
 2.001361e-06
 2.061188e-05
 -1.664874e-05
 2.143692e-05
 2.042874e-05
 -5.927557e-07
 8.794076e-07
 -1.184259e-06
 -1.651544e-06
 -2.569980e-06
 -2.673461e-06
 -1.628646e-05
 -1.558672e-05
 1.206250e-06
 -6.187943e-07
 -4.818754e-06
 5.103055e-07
 4.897428e-06
 4.913761e-07
 -2.066479e-07
 -3.165411e-06
 -3.572055e-06
 2.583134e-06
 1.524095e-06
 1.736476e-06
 1.089920e-07
 -1.565978e-05
 1.027189e-06
 2.150616e-07
 1.126939e-06
 9.112107e-07
 -7.629689e-07
 8.936459e-07
 1.864848e-05
 1.749763e-05
 -1.559590e-06
 -1.894141e-05
 0.000000e+00
 0.000000e+00
 2.194864e-06
 3.450788e-06
 3.365457e-06
 9.113855e-07
 1.648914e-05
 -1.698411e-05
 1.059012e-06
 -3.391048e-05
 -1.583329e-05
 1.238081e-06
 2.850755e-06
 6.485471e-06
 3.831156e-05
 1.010060e-06
 1.962091e-06
 3.750041e-05
 -1.701746e-05
 -1.811632e-05
 -1.716586e-06
 -3.649460e-05
 -7.675026e-07
 -2.152647e-06
 -1.760641e-06
 -1.100994e-06
 -1.624573e-05
 3.626144e-06
 -1.427382e-05
 1.755579e-05
 3.370523e-05
 -1.795210e-05
 -1.630374e-06
 -9.813308e-07
 -1.809521e-05
 -1.931506e-05
 1.735619e-05
 6.708881e-07
 4.379930e-07
 -1.671275e-05
 2.378111e-06
 3.213833e-06
 3.622717e-05
 -1.684919e-05
 3.801282e-07
 -1.698104e-05
 1.948620e-05
 -1.445444e-05
 -1.005479e-06
 -3.248130e-06
 1.659524e-05
 0.000000e+00
 0.000000e+00
 -1.321069e-05
 3.301557e-06
 -1.598874e-05
 -1.710215e-05
 -5.360237e-08
 -1.623889e-05
 -3.898793e-07
 3.795680e-08
 4.985478e-06
 4.490113e-06
 2.351269e-05
 7.099083e-06
 -3.230461e-05
 1.705526e-05
 -1.544336e-05
 -5.357311e-07
 -3.378394e-06
 -1.889541e-05
 -1.903394e-05
 -9.748769e-08
 2.477321e-06
 6.209054e-07
 1.753695e-05
 7.499642e-07
 1.870816e-05
 2.016254e-05
 2.456622e-06
 -1.410552e-05
 -1.594210e-06
 -4.281033e-06
 -8.810785e-07
 1.594195e-05
 -9.437351e-07
 1.888071e-06
 1.741677e-05
 -3.972560e-06
 -2.201493e-06
 2.960166e-06
 4.995494e-06
 2.618689e-06
 7.212325e-07
 -1.099759e-06
 4.641925e-07
 -1.009021e-06
 2.399429e-06
 2.083906e-06
 -1.673199e-05
 9.653808e-07
 -1.023666e-07
 0.000000e+00
 0.000000e+00
 2.269095e-05
 2.919279e-06
 -1.735997e-06
 1.628176e-06
 1.968294e-05
 1.215000e-06
 -1.382529e-05
 1.941752e-05
 6.148021e-07
 3.226106e-06
 2.820577e-06
 -3.640464e-05
 -3.215691e-05
 -1.258571e-05
 -1.555035e-05
 2.649584e-06
 4.114704e-07
 -1.286349e-06
 1.684097e-05
 -2.640726e-06
 6.278094e-07
 3.466159e-06
 6.739588e-07
 2.231501e-07
 -1.580405e-05
 9.639726e-07
 -1.761177e-05
 3.007878e-07
 -1.880599e-05
 -1.867278e-05
 1.113342e-08
 -1.820882e-07
 -3.268545e-07
 1.471924e-06
 1.807703e-06
 1.552341e-05
 3.447526e-05
 3.755183e-05
 7.129700e-07
 1.177220e-06
 2.012441e-05
 4.007383e-07
 -1.748103e-07
 3.271873e-07
 3.528899e-05
 -2.013678e-05
 -1.806313e-05
 2.276806e-06
 -1.699629e-05
 0.000000e+00
 0.000000e+00
 1.872028e-05
 -1.653130e-05
 -2.036129e-06
 1.702162e-05
 2.509663e-06
 -2.051992e-06
 1.966741e-06
 -1.292369e-05
 1.172968e-06
 1.881670e-05
 3.822197e-07
 -1.859868e-06
 2.003877e-05
 4.592095e-06
 6.901323e-06
 4.294092e-06
 1.267503e-06
 -1.614292e-05
 -1.052805e-07
 -7.795336e-07
 5.248033e-05
 -1.153356e-06
 -1.248683e-06
 1.800527e-08
 1.081710e-06
 7.472592e-07
 -1.794300e-05
 -1.965315e-05
 -1.786463e-05
 2.074328e-05
 2.048092e-06
 1.773655e-05
 1.838179e-07
 -5.667581e-08
 1.199315e-06
 -1.415046e-05
 1.891388e-05
 -2.815819e-06
 -1.866834e-05
 1.960490e-05
 -7.478412e-07
 -1.817443e-05
 1.542232e-06
 3.349607e-06
 -4.347829e-06
 -2.327945e-05
 1.932361e-05
 8.742975e-07
 9.251693e-08
 0.000000e+00
 0.000000e+00
 2.110950e-07
 1.003344e-06
 -1.671915e-05
 3.475261e-05