<VTKFile type="UnstructuredGrid"  version="0.1"   >
<UnstructuredGrid>  
<Piece  NumberOfPoints="     2601"  NumberOfCells="     5000">  
<Points>  
<DataArray  type="Float64"  NumberOfComponents="3"  format="ascii">  
 0.000000 0.000000 0.000000 
 0.020000 0.000000 0.000000 
 0.040000 0.000000 0.000000 
 0.060000 0.000000 0.000000 
 0.080000 0.000000 0.000000 
 0.100000 0.000000 0.000000 
 0.120000 0.000000 0.000000 
 0.140000 0.000000 0.000000 
 0.160000 0.000000 0.000000 
 0.180000 0.000000 0.000000 
 0.200000 0.000000 0.000000 
 0.220000 0.000000 0.000000 
 0.240000 0.000000 0.000000 
 0.260000 0.000000 0.000000 
 0.280000 0.000000 0.000000 
 0.300000 0.000000 0.000000 
 0.320000 0.000000 0.000000 
 0.340000 0.000000 0.000000 
 0.360000 0.000000 0.000000 
 0.380000 0.000000 0.000000 
 0.400000 0.000000 0.000000 
 0.420000 0.000000 0.000000 
 0.440000 0.000000 0.000000 
 0.460000 0.000000 0.000000 
 0.480000 0.000000 0.000000 
 0.500000 0.000000 0.000000 
 0.520000 0.000000 0.000000 
 0.540000 0.000000 0.000000 
 0.560000 0.000000 0.000000 
 0.580000 0.000000 0.000000 
 0.600000 0.000000 0.000000 
 0.620000 0.000000 0.000000 
 0.640000 0.000000 0.000000 
 0.660000 0.000000 0.000000 
 0.680000 0.000000 0.000000 
 0.700000 0.000000 0.000000 
 0.720000 0.000000 0.000000 
 0.740000 0.000000 0.000000 
 0.760000 0.000000 0.000000 
 0.780000 0.000000 0.000000 
 0.800000 0.000000 0.000000 
 0.820000 0.000000 0.000000 
 0.840000 0.000000 0.000000 
 0.860000 0.000000 0.000000 
 0.880000 0.000000 0.000000 
 0.900000 0.000000 0.000000 
 0.920000 0.000000 0.000000 
 0.940000 0.000000 0.000000 
 0.960000 0.000000 0.000000 
 0.980000 0.000000 0.000000 
 1.000000 0.000000 0.000000 
 0.000000 0.020000 0.000000 
 0.020000 0.020000 0.000000 
 0.040000 0.020000 0.000000 
 0.060000 0.020000 0.000000 
 0.080000 0.020000 0.000000 
 0.100000 0.020000 0.000000 
 0.120000 0.020000 0.000000 
 0.140000 0.020000 0.000000 
 0.160000 0.020000 0.000000 
 0.180000 0.020000 0.000000 
 0.200000 0.020000 0.000000 
 0.220000 0.020000 0.000000 
 0.240000 0.020000 0.000000 
 0.260000 0.020000 0.000000 
 0.280000 0.020000 0.000000 
 0.300000 0.020000 0.000000 
 0.320000 0.020000 0.000000 
 0.340000 0.020000 0.000000 
 0.360000 0.020000 0.000000 
 0.380000 0.020000 0.000000 
 0.400000 0.020000 0.000000 
 0.420000 0.020000 0.000000 
 0.440000 0.020000 0.000000 
 0.460000 0.020000 0.000000 
 0.480000 0.020000 0.000000 
 0.500000 0.020000 0.000000 
 0.520000 0.020000 0.000000 
 0.540000 0.020000 0.000000 
 0.560000 0.020000 0.000000 
 0.580000 0.020000 0.000000 
 0.600000 0.020000 0.000000 
 0.620000 0.020000 0.000000 
 0.640000 0.020000 0.000000 
 0.660000 0.020000 0.000000 
 0.680000 0.020000 0.000000 
 0.700000 0.020000 0.000000 
 0.720000 0.020000 0.000000 
 0.740000 0.020000 0.000000 
 0.760000 0.020000 0.000000 
 0.780000 0.020000 0.000000 
 0.800000 0.020000 0.000000 
 0.820000 0.020000 0.000000 
 0.840000 0.020000 0.000000 
 0.860000 0.020000 0.000000 
 0.880000 0.020000 0.000000 
 0.900000 0.020000 0.000000 
 0.920000 0.020000 0.000000 
 0.940000 0.020000 0.000000 
 0.960000 0.020000 0.000000 
 0.980000 0.020000 0.000000 
 1.000000 0.020000 0.000000 
 0.000000 0.040000 0.000000 
 0.020000 0.040000 0.000000 
 0.040000 0.040000 0.000000 
 0.060000 0.040000 0.000000 
 0.080000 0.040000 0.000000 
 0.100000 0.040000 0.000000 
 0.120000 0.040000 0.000000 
 0.140000 0.040000 0.000000 
 0.160000 0.040000 0.000000 
 0.180000 0.040000 0.000000 
 0.200000 0.040000 0.000000 
 0.220000 0.040000 0.000000 
 0.240000 0.040000 0.000000 
 0.260000 0.040000 0.000000 
 0.280000 0.040000 0.000000 
 0.300000 0.040000 0.000000 
 0.320000 0.040000 0.000000 
 0.340000 0.040000 0.000000 
 0.360000 0.040000 0.000000 
 0.380000 0.040000 0.000000 
 0.400000 0.040000 0.000000 
 0.420000 0.040000 0.000000 
 0.440000 0.040000 0.000000 
 0.460000 0.040000 0.000000 
 0.480000 0.040000 0.000000 
 0.500000 0.040000 0.000000 
 0.520000 0.040000 0.000000 
 0.540000 0.040000 0.000000 
 0.560000 0.040000 0.000000 
 0.580000 0.040000 0.000000 
 0.600000 0.040000 0.000000 
 0.620000 0.040000 0.000000 
 0.640000 0.040000 0.000000 
 0.660000 0.040000 0.000000 
 0.680000 0.040000 0.000000 
 0.700000 0.040000 0.000000 
 0.720000 0.040000 0.000000 
 0.740000 0.040000 0.000000 
 0.760000 0.040000 0.000000 
 0.780000 0.040000 0.000000 
 0.800000 0.040000 0.000000 
 0.820000 0.040000 0.000000 
 0.840000 0.040000 0.000000 
 0.860000 0.040000 0.000000 
 0.880000 0.040000 0.000000 
 0.900000 0.040000 0.000000 
 0.920000 0.040000 0.000000 
 0.940000 0.040000 0.000000 
 0.960000 0.040000 0.000000 
 0.980000 0.040000 0.000000 
 1.000000 0.040000 0.000000 
 0.000000 0.060000 0.000000 
 0.020000 0.060000 0.000000 
 0.040000 0.060000 0.000000 
 0.060000 0.060000 0.000000 
 0.080000 0.060000 0.000000 
 0.100000 0.060000 0.000000 
 0.120000 0.060000 0.000000 
 0.140000 0.060000 0.000000 
 0.160000 0.060000 0.000000 
 0.180000 0.060000 0.000000 
 0.200000 0.060000 0.000000 
 0.220000 0.060000 0.000000 
 0.240000 0.060000 0.000000 
 0.260000 0.060000 0.000000 
 0.280000 0.060000 0.000000 
 0.300000 0.060000 0.000000 
 0.320000 0.060000 0.000000 
 0.340000 0.060000 0.000000 
 0.360000 0.060000 0.000000 
 0.380000 0.060000 0.000000 
 0.400000 0.060000 0.000000 
 0.420000 0.060000 0.000000 
 0.440000 0.060000 0.000000 
 0.460000 0.060000 0.000000 
 0.480000 0.060000 0.000000 
 0.500000 0.060000 0.000000 
 0.520000 0.060000 0.000000 
 0.540000 0.060000 0.000000 
 0.560000 0.060000 0.000000 
 0.580000 0.060000 0.000000 
 0.600000 0.060000 0.000000 
 0.620000 0.060000 0.000000 
 0.640000 0.060000 0.000000 
 0.660000 0.060000 0.000000 
 0.680000 0.060000 0.000000 
 0.700000 0.060000 0.000000 
 0.720000 0.060000 0.000000 
 0.740000 0.060000 0.000000 
 0.760000 0.060000 0.000000 
 0.780000 0.060000 0.000000 
 0.800000 0.060000 0.000000 
 0.820000 0.060000 0.000000 
 0.840000 0.060000 0.000000 
 0.860000 0.060000 0.000000 
 0.880000 0.060000 0.000000 
 0.900000 0.060000 0.000000 
 0.920000 0.060000 0.000000 
 0.940000 0.060000 0.000000 
 0.960000 0.060000 0.000000 
 0.980000 0.060000 0.000000 
 1.000000 0.060000 0.000000 
 0.000000 0.080000 0.000000 
 0.020000 0.080000 0.000000 
 0.040000 0.080000 0.000000 
 0.060000 0.080000 0.000000 
 0.080000 0.080000 0.000000 
 0.100000 0.080000 0.000000 
 0.120000 0.080000 0.000000 
 0.140000 0.080000 0.000000 
 0.160000 0.080000 0.000000 
 0.180000 0.080000 0.000000 
 0.200000 0.080000 0.000000 
 0.220000 0.080000 0.000000 
 0.240000 0.080000 0.000000 
 0.260000 0.080000 0.000000 
 0.280000 0.080000 0.000000 
 0.300000 0.080000 0.000000 
 0.320000 0.080000 0.000000 
 0.340000 0.080000 0.000000 
 0.360000 0.080000 0.000000 
 0.380000 0.080000 0.000000 
 0.400000 0.080000 0.000000 
 0.420000 0.080000 0.000000 
 0.440000 0.080000 0.000000 
 0.460000 0.080000 0.000000 
 0.480000 0.080000 0.000000 
 0.500000 0.080000 0.000000 
 0.520000 0.080000 0.000000 
 0.540000 0.080000 0.000000 
 0.560000 0.080000 0.000000 
 0.580000 0.080000 0.000000 
 0.600000 0.080000 0.000000 
 0.620000 0.080000 0.000000 
 0.640000 0.080000 0.000000 
 0.660000 0.080000 0.000000 
 0.680000 0.080000 0.000000 
 0.700000 0.080000 0.000000 
 0.720000 0.080000 0.000000 
 0.740000 0.080000 0.000000 
 0.760000 0.080000 0.000000 
 0.780000 0.080000 0.000000 
 0.800000 0.080000 0.000000 
 0.820000 0.080000 0.000000 
 0.840000 0.080000 0.000000 
 0.860000 0.080000 0.000000 
 0.880000 0.080000 0.000000 
 0.900000 0.080000 0.000000 
 0.920000 0.080000 0.000000 
 0.940000 0.080000 0.000000 
 0.960000 0.080000 0.000000 
 0.980000 0.080000 0.000000 
 1.000000 0.080000 0.000000 
 0.000000 0.100000 0.000000 
 0.020000 0.100000 0.000000 
 0.040000 0.100000 0.000000 
 0.060000 0.100000 0.000000 
 0.080000 0.100000 0.000000 
 0.100000 0.100000 0.000000 
 0.120000 0.100000 0.000000 
 0.140000 0.100000 0.000000 
 0.160000 0.100000 0.000000 
 0.180000 0.100000 0.000000 
 0.200000 0.100000 0.000000 
 0.220000 0.100000 0.000000 
 0.240000 0.100000 0.000000 
 0.260000 0.100000 0.000000 
 0.280000 0.100000 0.000000 
 0.300000 0.100000 0.000000 
 0.320000 0.100000 0.000000 
 0.340000 0.100000 0.000000 
 0.360000 0.100000 0.000000 
 0.380000 0.100000 0.000000 
 0.400000 0.100000 0.000000 
 0.420000 0.100000 0.000000 
 0.440000 0.100000 0.000000 
 0.460000 0.100000 0.000000 
 0.480000 0.100000 0.000000 
 0.500000 0.100000 0.000000 
 0.520000 0.100000 0.000000 
 0.540000 0.100000 0.000000 
 0.560000 0.100000 0.000000 
 0.580000 0.100000 0.000000 
 0.600000 0.100000 0.000000 
 0.620000 0.100000 0.000000 
 0.640000 0.100000 0.000000 
 0.660000 0.100000 0.000000 
 0.680000 0.100000 0.000000 
 0.700000 0.100000 0.000000 
 0.720000 0.100000 0.000000 
 0.740000 0.100000 0.000000 
 0.760000 0.100000 0.000000 
 0.780000 0.100000 0.000000 
 0.800000 0.100000 0.000000 
 0.820000 0.100000 0.000000 
 0.840000 0.100000 0.000000 
 0.860000 0.100000 0.000000 
 0.880000 0.100000 0.000000 
 0.900000 0.100000 0.000000 
 0.920000 0.100000 0.000000 
 0.940000 0.100000 0.000000 
 0.960000 0.100000 0.000000 
 0.980000 0.100000 0.000000 
 1.000000 0.100000 0.000000 
 0.000000 0.120000 0.000000 
 0.020000 0.120000 0.000000 
 0.040000 0.120000 0.000000 
 0.060000 0.120000 0.000000 
 0.080000 0.120000 0.000000 
 0.100000 0.120000 0.000000 
 0.120000 0.120000 0.000000 
 0.140000 0.120000 0.000000 
 0.160000 0.120000 0.000000 
 0.180000 0.120000 0.000000 
 0.200000 0.120000 0.000000 
 0.220000 0.120000 0.000000 
 0.240000 0.120000 0.000000 
 0.260000 0.120000 0.000000 
 0.280000 0.120000 0.000000 
 0.300000 0.120000 0.000000 
 0.320000 0.120000 0.000000 
 0.340000 0.120000 0.000000 
 0.360000 0.120000 0.000000 
 0.380000 0.120000 0.000000 
 0.400000 0.120000 0.000000 
 0.420000 0.120000 0.000000 
 0.440000 0.120000 0.000000 
 0.460000 0.120000 0.000000 
 0.480000 0.120000 0.000000 
 0.500000 0.120000 0.000000 
 0.520000 0.120000 0.000000 
 0.540000 0.120000 0.000000 
 0.560000 0.120000 0.000000 
 0.580000 0.120000 0.000000 
 0.600000 0.120000 0.000000 
[...]
<PointData  Scalars="U"> 
<DataArray  type="Float64"  Name="U"  format="ascii"> 
 0.000000e+00
 0.000000e+00
 0.000000e+00
 0.000000e+00
 0.000000e+00
 0.000000e+00
 0.000000e+00
 0.000000e+00
 0.000000e+00
 0.000000e+00
 0.000000e+00
 0.000000e+00
 0.000000e+00
 0.000000e+00
 0.000000e+00
 0.000000e+00
 0.000000e+00
 0.000000e+00
 0.000000e+00
 0.000000e+00
 0.000000e+00
 0.000000e+00
 0.000000e+00
 0.000000e+00
 0.000000e+00
 0.000000e+00
 0.000000e+00
 0.000000e+00
 0.000000e+00
 0.000000e+00
 0.000000e+00
 0.000000e+00
 0.000000e+00
 0.000000e+00
 0.000000e+00
 0.000000e+00
 0.000000e+00
 0.000000e+00
 0.000000e+00
 0.000000e+00
 0.000000e+00
 0.000000e+00
 0.000000e+00
 0.000000e+00
 0.000000e+00
 0.000000e+00
 0.000000e+00
 0.000000e+00
 0.000000e+00
 0.000000e+00
 0.000000e+00
 0.000000e+00
 -8.821804e-10
 -1.405452e-09
 -1.346869e-09
 -7.363425e-10
 9.015281e-11
 5.396944e-10
 -1.188289e-10
 -2.673197e-09
 -8.001061e-09
 -1.711473e-08
 -3.073317e-08
 -4.722567e-08
 -5.832387e-08
 -4.962368e-08
 -1.847335e-08
 1.271676e-08
 2.363574e-08
 1.787101e-08
 6.395217e-09
 -6.906840e-09
 -2.704026e-08
 -7.702953e-08
 -2.556396e-07
 -1.417547e-06
 -3.565948e-07
 2.976941e-08
 -2.539829e-06
 -3.503100e-06
 -2.891486e-06
 -1.035308e-06
 -6.876202e-07
 -1.569288e-06
 -2.543598e-07
 6.069178e-07
 -2.923328e-08
 -1.538413e-07
 -1.518907e-07
 -1.059954e-07
 -6.025250e-08
 -4.106077e-08
 -4.344897e-08
 -4.645197e-08
 -2.920140e-08
 1.099307e-08
 4.871093e-08
 6.096386e-08
 5.142955e-08
 3.369494e-08
 1.493649e-08
 0.000000e+00
 0.000000e+00
 -2.146286e-09
 -3.436658e-09
 -3.299921e-09
 -1.733859e-09
 5.353716e-10
 2.182022e-09
 1.645133e-09
 -2.605119e-09
 -1.220904e-08
 -2.942823e-08
 -5.743566e-08
 -9.813091e-08
 -1.383259e-07
 -1.276456e-07
 -3.637629e-08
 5.131149e-08
 6.481601e-08
 3.978826e-08
 1.332730e-08
 -9.049809e-09
 -3.268468e-08
 -6.527124e-08
 -1.161015e-07
 -2.714739e-07
 1.696665e-05
 -8.425912e-07
 -1.415205e-06
 1.543348e-05
 -1.988801e-06
 -1.321034e-06
 -7.834592e-07
 -5.458149e-07
 1.701554e-05
 -4.207163e-07
 -3.932784e-07
 -4.031417e-07
 -3.464844e-07
 -2.093883e-07
 -8.729858e-08
 -5.824258e-08
 -8.614060e-08
 -1.161235e-07
 -8.780328e-08
 2.514428e-08
 1.290494e-07
 1.450489e-07
 1.094702e-07
 6.702601e-08
 3.086041e-08
 0.000000e+00
 0.000000e+00
 -4.312999e-09
 -6.992906e-09
 -6.812864e-09
 -3.542713e-09
 1.566814e-09
 6.026278e-09
 7.116388e-09
 2.712037e-09
 -8.998603e-09
 -3.097291e-08
 -6.990241e-08
 -1.406211e-07
 -2.692255e-07
 -3.157433e-07
 -4.661332e-08
 1.908077e-07
 1.398240e-07
 5.668673e-08
 1.510611e-08
 -1.006406e-08
 -3.014412e-08
 -3.367146e-08
 4.534779e-08
 5.610331e-07
 -5.054081e-07
 -1.935913e-06
 -5.312116e-07
 -1.474251e-06
 -2.675728e-06
 -1.277625e-06
 -6.584142e-07
 2.312388e-07
 -5.586862e-07
 -1.839806e-06
 -7.961970e-07
 -7.150188e-07
 -6.510208e-07
 -2.930657e-07
 6.774659e-09
 -2.141490e-08
 -1.242654e-07
 -2.455623e-07
 -2.617215e-07
 5.256422e-08
 3.258839e-07
 2.773147e-07
 1.677615e-07
 9.236656e-08
 4.082418e-08
 0.000000e+00
 0.000000e+00
 -8.172694e-09
 -1.357579e-08
 -1.368598e-08
 -7.424903e-09
 3.215514e-09
 1.337521e-08
 1.816781e-08
 1.517062e-08
 3.903703e-09
 -1.684448e-08
 -5.302228e-08
 -1.254368e-07
 -3.128552e-07
 -1.403116e-06
 -1.075743e-07
 7.893947e-07
 1.596206e-07
 2.826171e-08
 4.050343e-09
 -1.287931e-08
 -3.810553e-08
 -5.757911e-08
 -5.595083e-08
 -1.199570e-07
 -5.013083e-07
 -9.026665e-07
 -9.742320e-07
 -1.114053e-06
 -1.223412e-06
 -9.899284e-07
 -6.430790e-07
 -4.198087e-07
 -5.666613e-07
 -8.152875e-07
 -8.215047e-07
 -8.730284e-07
 -1.845558e-06
 -4.010169e-07
 6.033001e-07
 -1.942807e-09
 -1.474541e-07
 -3.067120e-07
 -1.354559e-06
 3.803500e-08
 1.021897e-06
 3.861485e-07
 1.865062e-07
 9.437602e-08
 4.054341e-08
 0.000000e+00
 0.000000e+00
 -1.480928e-08
 -2.566872e-08
 -2.749944e-08
 -1.626322e-08
 5.353023e-09
 2.660936e-08
 3.739214e-08
 3.579105e-08
 2.560410e-08
 1.081733e-08
 -6.495954e-09
 -2.495025e-08
 -3.731785e-08
 -1.020716e-07
 1.731049e-05
 -1.917519e-07
 -1.535445e-07
 -7.907431e-08
 -1.284987e-09
 -3.355563e-09
 -5.136399e-08
 -1.071534e-07
 -1.758969e-07
 -3.068836e-07
 -5.507451e-07
 -8.626282e-07
 -1.036304e-06
 -8.749066e-07
 -6.839410e-07
 -6.535266e-07
 -5.899132e-07
 -5.294089e-07
 -5.575184e-07
 -6.233799e-07
 -6.546064e-07
 -6.954132e-07
 -7.154305e-07
 1.702099e-05
 -2.699872e-07
 -3.091506e-07
 -1.524998e-07
 -3.127454e-08
 -1.470206e-07
 1.750944e-05
 2.595259e-07
 2.269174e-07
 1.192562e-07
 6.335698e-08
 2.858595e-08
 0.000000e+00
 0.000000e+00
 -2.510794e-08
 -4.681234e-08
 -5.562036e-08
 -3.722269e-08
 8.002440e-09
 5.207648e-08
 7.001400e-08
 6.489167e-08
 5.150130e-08
 4.081063e-08
 4.166663e-08
 7.350592e-08
 2.081847e-07
 8.021258e-07
 -1.845675e-07
 -1.634821e-06
 -6.152437e-07
 -1.812613e-07
 1.014027e-07
 4.808657e-08
 -6.469185e-08
 -1.516825e-07
 -2.382299e-07
 -3.558492e-07
 -5.323894e-07
 -8.235918e-07
 -1.991403e-06
 -7.397618e-07
 1.538224e-07
 -4.429847e-07
 -5.307951e-07
 -5.183031e-07
 -5.054696e-07
 -4.972891e-07
 -4.751566e-07
 -4.447052e-07
 -8.482958e-07
 -4.500777e-07
 -9.769615e-07
 -1.566080e-06
 -1.998582e-07
 7.423542e-07
 -3.014399e-07
 -3.608461e-08
 -4.682752e-07
 -2.416165e-08
 1.811634e-09
 1.439206e-08
 1.183736e-08
 0.000000e+00
 0.000000e+00
 -3.766965e-08
 -7.932511e-08
 -1.133799e-07
 -9.149273e-08
 1.256793e-08
 1.100964e-07
 1.273277e-07
 1.010314e-07
 7.415869e-08
 6.052587e-08
 6.490134e-08
 9.605199e-08
 1.652187e-07
 1.805327e-07
 -1.375174e-07
 -6.058192e-07
 -1.659651e-06
 -2.444492e-07
 7.053801e-07
 7.125110e-08
 -1.094252e-07
 -1.970384e-07
 -2.685107e-07
 -3.457640e-07
 -4.287643e-07
 -4.967099e-07
 -5.901671e-07
 1.683215e-05
 -6.301435e-07
 -5.732785e-07
 -5.405853e-07
 -4.925436e-07
 -4.451758e-07
 -3.909142e-07
 -3.088011e-07
 -1.718179e-07
 -1.191983e-07
 1.713131e-05
 -5.384211e-07
 -4.174446e-07
 1.725297e-05
 -1.295937e-08
 7.575736e-08
 1.729930e-05
 -3.994008e-07
 -2.673453e-07
 -1.017155e-07
 -1.778105e-08
 4.814810e-09
 0.000000e+00
 0.000000e+00
 -4.456363e-08
 -1.105939e-07
 -2.273873e-07
 -2.576664e-07
 2.795482e-08
 2.759275e-07
 2.243589e-07
 1.316550e-07
 8.262087e-08
 6.309895e-08
 6.285012e-08
 7.623285e-08
 8.890299e-08
 5.782043e-08
 -5.245542e-08
 -1.595694e-07
 -2.312144e-07
 1.723620e-05
 -2.132676e-07
 -1.885054e-07
 -2.205652e-07
 -2.522253e-07
 -2.899058e-07
 -3.267053e-07
 -3.354368e-07
 -2.279392e-07
 3.735471e-07
 -5.490544e-07
 -1.856448e-06
 -7.627200e-07
 -5.597480e-07
 -4.622365e-07
 -3.896573e-07
 -3.113485e-07
 -1.975421e-07
 1.904425e-08
 6.659441e-07
 -2.834411e-07
 -1.483342e-06
 3.502780e-07
 -1.837385e-07
 -1.211053e-06
 4.857143e-07
 -3.625466e-07
 -1.674148e-06
 -4.566999e-07
 -1.117159e-07
 1.228281e-08
 2.334902e-08
 0.000000e+00
 0.000000e+00
 -3.191189e-08
 -9.124589e-08
 -2.588285e-07
 -1.323808e-06
 -1.422947e-09
 9.133429e-07
 2.770643e-07
 1.148105e-07
 6.326190e-08
 4.735184e-08
 4.626218e-08
 5.109135e-08
 5.268900e-08
 4.253958e-08
 3.793873e-08
 1.389491e-07
 7.366686e-07
 -1.942285e-07
 -1.525753e-06
 -4.738809e-07
 -3.277941e-07
 -2.998356e-07
 -3.093958e-07
 -3.281296e-07
 -3.304912e-07
 -2.825321e-07
 -2.448339e-07
 -4.673229e-07
 -7.103151e-07
 -6.449169e-07
 -5.024561e-07
 -4.122297e-07
 -3.397989e-07
 -2.632189e-07
 -1.678644e-07
 -4.901220e-08
 -1.353846e-08
 -3.363930e-07
 -5.743903e-07
 -1.937483e-07
 -2.150880e-08
 -2.000508e-07
 -2.174714e-07
 -5.107558e-07
 -7.769421e-07
 -3.551431e-07
 1.108037e-07
 1.472672e-07
 6.727596e-08
 0.000000e+00
 0.000000e+00
 2.205910e-09
 6.770609e-09
 2.308192e-08
 -4.311239e-09
 1.745578e-05
 -2.152647e-09
 2.776755e-08
 1.473651e-08
 1.459131e-08
 1.824974e-08
 2.348345e-08
 2.855508e-08
 3.163399e-08
 3.450008e-08
 5.091700e-08
 1.062224e-07
 1.266937e-07
 -1.436137e-07
 -4.474599e-07
 -4.371180e-07
 -3.463125e-07
 -3.156558e-07
 -3.196439e-07
 -3.432704e-07
 -3.781548e-07
 -4.148952e-07
 -4.379598e-07
 -4.477179e-07
 -4.512448e-07
 -4.337457e-07
 -3.939501e-07
 -3.470403e-07
 -2.951112e-07
 -2.344843e-07
 -1.680829e-07
 -1.190752e-07
 -1.548278e-07
 -3.901414e-07
 -1.542923e-06
 -2.722063e-07
 5.730137e-07
 -1.124325e-07
 -2.928116e-07
 -5.917792e-07
 -1.772248e-06
 -2.119691e-07
 9.611455e-07
 3.062459e-07
 8.613140e-08
 0.000000e+00
 0.000000e+00
 3.466431e-08
 9.727198e-08
 2.662326e-07
 9.066327e-07
 -5.617266e-09
 -1.326566e-06
 -2.610400e-07
 -9.400288e-08
 -3.722175e-08
 -1.243892e-08
 7.416545e-10
 8.430184e-09
 1.285284e-08
 1.623073e-08
 2.123581e-08
 2.103278e-08
 -2.176637e-08
 -1.419232e-07
 -2.670849e-07
 -3.115558e-07
 -3.048912e-07
 -2.991414e-07
 -3.113018e-07
 -3.472767e-07
 -4.213986e-07
 -5.649367e-07
 -6.468466e-07
 -4.272300e-07
 -2.173318e-07
 -2.489832e-07
 -2.884318e-07
 -2.861758e-07
 -2.602515e-07
 -2.142996e-07
 -1.589207e-07
 -1.137498e-07
 -9.848892e-08
 -1.124258e-07
 -1.967965e-07
 1.718490e-05
 -4.030780e-07
 -4.272599e-07
 -2.181583e-07
 -1.588000e-07
 -1.351218e-06
 1.730738e-05
 7.134446e-07
 1.159734e-07
 -8.675054e-09
 0.000000e+00
 0.000000e+00
 4.498534e-08
 1.086626e-07
 2.098459e-07
 2.662006e-07
 2.059406e-08
 -2.645101e-07
 -2.355083e-07
 -1.223021e-07
 -6.359868e-08
 -3.332252e-08
 -1.704289e-08
 -8.376529e-09
 -4.563066e-09
 -4.549171e-09
 -9.531583e-09
 -2.605284e-08
 -6.597933e-08
 -1.311792e-07
 -1.971411e-07
 -2.374676e-07
 -2.539551e-07
 -2.637240e-07
 -2.806256e-07
 -3.166349e-07
 -3.966876e-07
 -6.049478e-07
 -1.733580e-06
 -4.812138e-07
 4.172910e-07
 -1.432900e-07
 -2.205636e-07
 -2.458692e-07
 -2.475212e-07
 -2.052049e-07
 -1.398311e-07
 -7.579620e-08
 -3.129590e-09
 1.517662e-07
 7.536743e-07
 -2.249282e-07
 -1.697664e-06
 -1.650634e-06
 -9.052624e-08
 1.035937e-06
 9.804582e-07
 1.731630e-05
 -1.554685e-06
 -4.609277e-07
 -2.068096e-07
 0.000000e+00
 0.000000e+00
 3.768055e-08
 7.840513e-08
 1.126404e-07
 9.966419e-08
 3.809682e-09
 -1.007152e-07
 -1.252399e-07
 -9.651492e-08
 -6.404182e-08
 -4.146398e-08
 -2.775063e-08
 -2.055298e-08
 -1.845944e-08
 -2.124008e-08
 -3.019664e-08
 -4.840370e-08
 -7.880225e-08
 -1.190898e-07
 -1.593975e-07
 -1.897354e-07
 -2.084293e-07
 -2.206204e-07
 -2.324871e-07
 -2.488826e-07
 -2.736213e-07
 -3.062450e-07
 -4.179597e-07
 1.689736e-05
 -6.241580e-07
 -3.446828e-07
 -1.481233e-07
 -2.285734e-07
 -2.892403e-07
 -2.191108e-07
 -1.126351e-07
 -3.923426e-08
 3.789975e-08
 1.412946e-07
 1.750558e-07
 -9.400919e-08
 -3.280317e-07
 -1.902195e-07
 1.755927e-05
 3.934262e-07
 1.063956e-06
 -1.927259e-07
 -1.928615e-06
 -8.851161e-07
 -3.721595e-07
 0.000000e+00
 0.000000e+00
 2.579135e-08
 4.822121e-08
 5.866113e-08
 4.341739e-08
 -8.974580e-11
 -4.672735e-08
 -6.863028e-08
 -6.578264e-08
 -5.309523e-08
 -4.073795e-08
 -3.213113e-08
 -2.781166e-08
 -2.772951e-08
 -3.210880e-08
 -4.172124e-08
 -5.763558e-08
 -8.009271e-08
 -1.069151e-07
 -1.334061e-07
 -1.548993e-07
 -1.694296e-07
 -1.775341e-07
 -1.796995e-07
 -1.725368e-07
 -1.395180e-07
 -1.297356e-08
 5.495615e-07
 -5.551010e-07
 -2.972402e-06
 -6.271416e-07
 3.862029e-07
 -3.156979e-07
 -4.938640e-07
 -2.617567e-07
 -2.565118e-08
 -1.463574e-08
 4.459604e-08
 1.225535e-07
 8.165030e-08
 -7.871470e-08
 -2.470289e-08
 9.200232e-07
 3.393249e-07
 -9.279478e-07
 4.774025e-08
 -2.274378e-07
 -7.248284e-07
 -1.770813e-06
 -4.192701e-07
 0.000000e+00
 0.000000e+00
 1.629950e-08
 2.861679e-08
 3.190616e-08
 2.179608e-08
 -1.351144e-10
 -2.399835e-08
 -3.924723e-08
 -4.338875e-08
 -4.060717e-08
 -3.585852e-08
 -3.216384e-08
 -3.089085e-08
 -3.264133e-08
 -3.782148e-08
 -4.682933e-08
 -5.987815e-08
 -7.650008e-08
 -9.507043e-08
 -1.129667e-07
 -1.275122e-07
 -1.368598e-07
 -1.398340e-07
 -1.345719e-07
 -1.161341e-07
 -7.311802e-08
 9.899261e-09
 5.043707e-08
 -2.007266e-07
 -5.388321e-07
 1.691428e-05
 -4.986290e-07
 -5.919271e-07
 -1.665318e-06
 -3.762858e-07
 4.583734e-07
 -1.557760e-07
 2.790863e-08
 2.507317e-07
 1.371163e-07
 -8.905479e-08
 -1.053968e-06
 3.753240e-07
 1.057622e-06
 1.054308e-07
 -1.168250e-07
 -1.849729e-07
 -1.814564e-07
 -1.337976e-07
 1.738468e-05
 0.000000e+00
 0.000000e+00
 1.053136e-08
 1.801076e-08
 1.960149e-08
 1.377182e-08
 1.907701e-09
 -1.162687e-08
 -2.220851e-08
 -2.790411e-08
 -2.967642e-08
 -2.964311e-08
 -2.965941e-08
 -3.092442e-08
 -3.413204e-08
 -3.968612e-08
 -4.778443e-08
 -5.833498e-08
 -7.076481e-08
 -8.389151e-08
 -9.605099e-08
 -1.054699e-07
 -1.105739e-07
 -1.098939e-07
 -1.015379e-07
 -8.265156e-08
 -5.041433e-08
 -9.529396e-09
 1.909171e-08
 7.504197e-08
 5.963667e-07
 -3.528316e-07
 -1.654909e-06
 -5.581495e-07
 -4.247958e-07
 1.704341e-05
 -5.468915e-07
 -1.514462e-06
 -8.297799e-08
 9.050882e-07
 2.006982e-07
 1.729668e-08
 2.076713e-07
 1.785175e-05
 2.158108e-07
 -1.618653e-09
 -2.058473e-07
 -2.288985e-07
 2.019478e-07
 1.131293e-06
 3.447011e-07
 0.000000e+00
 0.000000e+00
 7.821032e-09
 1.348523e-08
 1.524911e-08
 1.238036e-08
 5.673695e-09
 -2.758188e-09
 -1.059927e-08
 -1.651505e-08
 -2.047349e-08
 -2.325462e-08
 -2.582186e-08
 -2.897127e-08
 -3.324699e-08
 -3.896182e-08
 -4.620566e-08
 -5.480277e-08
 -6.424383e-08
 -7.366321e-08
 -8.192186e-08
 -8.777403e-08
 -9.000518e-08
 -8.744197e-08
 -7.889028e-08
 -6.331646e-08
 -4.083980e-08
 -1.418014e-08
 1.534685e-08
 6.165557e-08
 6.833805e-08
 -1.880699e-07
 -4.248319e-07
 -2.280158e-07
 5.243766e-07
 -3.436145e-07
 -1.682960e-06
 -6.129197e-07
 1.733504e-05
 1.774415e-07
 8.479373e-08
 -9.023347e-07
 1.010072e-06
 9.688888e-07
 -1.049501e-06
 -2.331029e-07
 -2.861676e-07
 -1.270263e-06
 1.763547e-07
 1.205484e-06
 4.396067e-07
 0.000000e+00
 0.000000e+00
 7.328823e-09
 1.302824e-08
 1.580627e-08
 1.507795e-08
 1.120141e-08
 5.325892e-09
 -1.158176e-09
 -7.220553e-09
 -1.246834e-08
 -1.704420e-08
 -2.135757e-08
 -2.585397e-08
 -3.088743e-08
 -3.666515e-08
 -4.321677e-08
 -5.036386e-08
 -5.769610e-08
 -6.457866e-08
 -7.020875e-08
 -7.370927e-08
 -7.422222e-08
 -7.098217e-08
 -6.341935e-08
 -5.141548e-08
 -3.576912e-08
 -1.847939e-08
 -2.504182e-09
 3.652081e-09
 -2.935857e-08
 -1.214767e-07
 -1.836227e-07
 -1.123793e-07
 -1.305131e-08
 -1.807699e-07
 -3.704308e-07
 -6.786094e-07
 -9.412591e-08
 -3.942451e-07
 1.358659e-07
 2.210513e-07
 1.774288e-05
 4.290274e-08
 -2.094837e-07
 -1.848452e-07
 -4.067273e-08
 2.488848e-08
 1.756127e-05
 1.393919e-07
 1.218436e-07
 0.000000e+00
 0.000000e+00
 8.520145e-09
 1.561355e-08
 2.003907e-08
 2.106876e-08
 1.876988e-08
 1.394758e-08
 7.743049e-09
 1.165661e-09
 -5.177721e-09
 -1.109895e-08
 -1.669296e-08
 -2.217461e-08
 -2.775413e-08
 -3.355983e-08
 -3.959285e-08
 -4.570084e-08
 -5.156890e-08
 -5.673428e-08
 -6.062928e-08
 -6.264715e-08
 -6.222057e-08
 -5.891245e-08
 -5.254341e-08
 -4.339071e-08
 -3.245356e-08
 -2.174212e-08
 -1.485912e-08
 -1.845862e-08
 -4.112099e-08
 -7.986827e-08
 -1.082409e-07
 -1.087842e-07
 -1.049946e-07
 -8.554250e-08
 6.540245e-08
 2.078744e-07
 1.752207e-05
 -1.252682e-07
 1.308750e-07
 8.975809e-07
 3.263544e-08
 -1.333110e-06
 -3.118654e-07
 -7.911385e-08
 2.001230e-07
 9.196969e-07
 6.067204e-08
 -1.234764e-06
 -1.707941e-07
 0.000000e+00
 0.000000e+00
 1.116306e-08
 2.095293e-08
 2.781141e-08
 3.052228e-08
 2.891942e-08
 2.392286e-08
 1.694218e-08
 9.243829e-09
 1.643144e-09
 -5.499561e-09
 -1.213851e-08
 -1.838286e-08
 -2.437301e-08
 -3.020116e-08
 -3.586620e-08
 -4.125227e-08
 -4.612620e-08
 -5.015349e-08
 -5.293327e-08
 -5.405028e-08
 -5.314122e-08
 -4.997746e-08
 -4.457182e-08
 -3.731588e-08
 -2.914058e-08
 -2.169024e-08
 -1.749930e-08
 -1.984798e-08
 -3.110637e-08
 -4.957990e-08
 -7.160390e-08
 -1.058662e-07
 -1.814817e-07
 -1.454385e-07
 3.173161e-07
 1.202665e-06
 1.919481e-07
 -1.243441e-06
 -1.334245e-07
 1.017844e-07
 -7.242422e-08
 -3.194168e-07
 -2.335332e-07
 -2.165163e-08
 1.743694e-07
 2.869495e-07
 7.510663e-08
 -1.896913e-07
 -1.451420e-07
 0.000000e+00
 0.000000e+00
 1.512032e-08
 2.927399e-08
 3.993095e-08
 4.449100e-08
 4.254338e-08
 3.584736e-08
 2.677480e-08
 1.714477e-08
 7.953436e-09
 -4.285329e-10
 -7.982568e-09
 -1.483633e-08
 -2.113770e-08
 -2.698598e-08
 -3.239844e-08
 -3.729843e-08
 -4.151860e-08
 -4.481741e-08
 -4.690830e-08
 -4.750125e-08
 -4.635589e-08
 -4.334676e-08
 -3.854024e-08
 -3.227845e-08
 -2.525420e-08
 -1.854488e-08
 -1.353045e-08
 -1.152921e-08
 -1.307495e-08
 -1.777604e-08
 -2.774276e-08
 -5.993049e-08
 -1.891446e-07
 -1.193600e-06
 2.265341e-07
 1.187605e-06
 2.869806e-07
 -1.710154e-07
 -1.910423e-07
 -1.291574e-07
 -1.870798e-07
 -2.288239e-07
 -1.171284e-07
 5.063308e-08
 1.464163e-07
 1.488235e-07
 5.979260e-08
 -3.584880e-08
 -4.757130e-08
 0.000000e+00
 0.000000e+00
 1.966229e-08
 4.105621e-08
 5.860145e-08
 6.537609e-08
 6.099702e-08
 5.002716e-08
 3.701573e-08
 2.450200e-08
 1.339810e-08
 3.792516e-09
 -4.528691e-09
 -1.183317e-08
 -1.834126e-08
 -2.419057e-08
 -2.942769e-08
 -3.401167e-08
 -3.782453e-08
 -4.068832e-08
 -4.238924e-08
 -4.270932e-08
 -4.146609e-08
 -3.855957e-08
 -3.402339e-08
 -2.807026e-08
 -2.111084e-08
 -1.370856e-08
 -6.413028e-09
 5.833497e-10
 7.914616e-09
 1.733361e-08
 3.153082e-08
 5.437571e-08
 9.645633e-08
 1.015951e-07
 1.758818e-05
 1.071721e-07
 2.791094e-08
 -1.059112e-07
 -1.597533e-07
 -1.998761e-07
 -3.126901e-07
 -3.517054e-07
 -5.650951e-08
 2.231402e-07
 2.052289e-07
 1.236691e-07
 5.445468e-08
 4.780650e-09
 -1.063806e-08
 0.000000e+00
 0.000000e+00
 2.071063e-08
 5.642324e-08
 8.951833e-08
 9.831441e-08
 8.591362e-08
 6.584664e-08
 4.648432e-08
 3.032281e-08
 1.730179e-08
 6.724046e-09
 -2.082031e-09
 -9.611977e-09
 -1.618813e-08
 -2.199256e-08
 -2.709708e-08
 -3.148584e-08
 -3.507333e-08
 -3.772121e-08
 -3.925672e-08
 -3.949429e-08
 -3.826193e-08
 -3.543257e-08
 -3.095817e-08
 -2.489710e-08
 -1.741338e-08
 -8.710871e-09
 1.145365e-09
 1.256560e-08
 2.697513e-08
 4.776340e-08
 8.278357e-08
 1.535589e-07
 3.351555e-07
 9.878382e-07
 7.717524e-08
 -1.268057e-06
 -2.564906e-07
 -1.506511e-07
 -1.436360e-07
 -1.823793e-07
 -3.398433e-07
 -1.399423e-06
 -6.693446e-08
 8.646029e-07
 2.446292e-07
 8.909814e-08
 3.212386e-08
 5.555753e-09
 -2.826415e-09
 0.000000e+00
 0.000000e+00
 -1.274469e-09
 7.391205e-08
 1.506868e-07
 1.539187e-07
 1.170960e-07
 7.993396e-08
 5.238788e-08
 3.293091e-08
 1.877849e-08
 7.916522e-09
 -8.821534e-10
 -8.321389e-09
 -1.478856e-08
 -2.047997e-08
 -2.547064e-08
 -2.975245e-08
 -3.325590e-08
 -3.586422e-08
 -3.742423e-08
 -3.775658e-08
 -3.666807e-08
 -3.396906e-08
 -2.949896e-08
 -2.315639e-08
 -1.491604e-08
 -4.792972e-09
 7.300662e-09
 2.185605e-08
 4.027006e-08
 6.567493e-08
 1.044836e-07
 1.689400e-07
 2.736888e-07
 3.320312e-07
 8.127212e-08
 -2.209135e-07
 -2.196065e-07
 -1.352128e-07
 -9.657122e-08
 -7.429974e-08
 -4.795097e-08
 -6.787645e-08
 1.740079e-05
 -4.674099e-08
 -7.158327e-09
 -1.456962e-08
 -1.397290e-08
 -1.194563e-08
 -7.258520e-09
 0.000000e+00
 0.000000e+00
 -1.382313e-07
 9.252179e-08
 3.128141e-07
 2.458231e-07
 1.424469e-07
 8.308380e-08
 5.017690e-08
 3.039989e-08
 1.709894e-08
 7.130394e-09
 -9.913522e-10
 -7.972530e-09
 -1.414539e-08
 -1.965469e-08
 -2.454304e-08
 -2.878960e-08
 -3.232753e-08
 -3.505114e-08
 -3.681692e-08
 -3.744011e-08
 -3.668934e-08
 -3.428676e-08
 -2.992630e-08
 -2.332317e-08
 -1.428876e-08
 -2.783753e-09
 1.113736e-08
 2.755906e-08
 4.708169e-08
 7.116190e-08
 1.019424e-07
 1.398238e-07
 1.726988e-07
 1.572519e-07
 5.539088e-08
 -5.965984e-08
 -9.680813e-08
 -7.606244e-08
 -3.575621e-08
 3.328737e-08
 2.076972e-07
 8.534517e-07
 -5.257158e-08
 -1.366401e-06
 -2.939302e-07
 -1.213533e-07
 -6.066974e-08
 -3.251416e-08
 -1.478096e-08
 0.000000e+00
 0.000000e+00
 -1.227938e-06
 4.155840e-08
 9.354152e-07
 2.891051e-07
 1.201242e-07
 6.147269e-08
 3.594602e-08
 2.193017e-08
 1.233767e-08
 4.615431e-09
 -2.184289e-09
 -8.403293e-09
 -1.414990e-08
 -1.944032e-08
 -2.424982e-08
 -2.852908e-08
 -3.220732e-08
 -3.518907e-08
 -3.734434e-08
 -3.848933e-08
 -3.835679e-08
 -3.656494e-08
 -3.261271e-08
 -2.594920e-08
 -1.615314e-08
 -3.172163e-09
 1.255960e-08
 3.031398e-08
 4.949452e-08
 6.984670e-08
 9.080669e-08
 1.092834e-07
 1.160383e-07
 9.650981e-08
 4.751699e-08
 -5.334814e-09