<VTKFile type="UnstructuredGrid"  version="0.1"   >
<UnstructuredGrid>  
<Piece  NumberOfPoints="     2601"  NumberOfCells="     5000">  
<Points>  
<DataArray  type="Float64"  NumberOfComponents="3"  format="ascii">  
 0.000000 0.000000 0.000000 
 0.020000 0.000000 0.000000 
 0.040000 0.000000 0.000000 
 0.060000 0.000000 0.000000 
 0.080000 0.000000 0.000000 
 0.100000 0.000000 0.000000 
 0.120000 0.000000 0.000000 
 0.140000 0.000000 0.000000 
 0.160000 0.000000 0.000000 
 0.180000 0.000000 0.000000 
 0.200000 0.000000 0.000000 
 0.220000 0.000000 0.000000 
 0.240000 0.000000 0.000000 
 0.260000 0.000000 0.000000 
 0.280000 0.000000 0.000000 
 0.300000 0.000000 0.000000 
 0.320000 0.000000 0.000000 
 0.340000 0.000000 0.000000 
 0.360000 0.000000 0.000000 
 0.380000 0.000000 0.000000 
 0.400000 0.000000 0.000000 
 0.420000 0.000000 0.000000 
 0.440000 0.000000 0.000000 
 0.460000 0.000000 0.000000 
 0.480000 0.000000 0.000000 
 0.500000 0.000000 0.000000 
 0.520000 0.000000 0.000000 
 0.540000 0.000000 0.000000 
 0.560000 0.000000 0.000000 
 0.580000 0.000000 0.000000 
 0.600000 0.000000 0.000000 
 0.620000 0.000000 0.000000 
 0.640000 0.000000 0.000000 
 0.660000 0.000000 0.000000 
 0.680000 0.000000 0.000000 
 0.700000 0.000000 0.000000 
 0.720000 0.000000 0.000000 
 0.740000 0.000000 0.000000 
 0.760000 0.000000 0.000000 
 0.780000 0.000000 0.000000 
 0.800000 0.000000 0.000000 
 0.820000 0.000000 0.000000 
 0.840000 0.000000 0.000000 
 0.860000 0.000000 0.000000 
 0.880000 0.000000 0.000000 
 0.900000 0.000000 0.000000 
 0.920000 0.000000 0.000000 
 0.940000 0.000000 0.000000 
 0.960000 0.000000 0.000000 
 0.980000 0.000000 0.000000 
 1.000000 0.000000 0.000000 
 0.000000 0.020000 0.000000 
 0.020000 0.020000 0.000000 
 0.040000 0.020000 0.000000 
 0.060000 0.020000 0.000000 
 0.080000 0.020000 0.000000 
 0.100000 0.020000 0.000000 
 0.120000 0.020000 0.000000 
 0.140000 0.020000 0.000000 
 0.160000 0.020000 0.000000 
 0.180000 0.020000 0.000000 
 0.200000 0.020000 0.000000 
 0.220000 0.020000 0.000000 
 0.240000 0.020000 0.000000 
 0.260000 0.020000 0.000000 
 0.280000 0.020000 0.000000 
 0.300000 0.020000 0.000000 
 0.320000 0.020000 0.000000 
 0.340000 0.020000 0.000000 
 0.360000 0.020000 0.000000 
 0.380000 0.020000 0.000000 
 0.400000 0.020000 0.000000 
 0.420000 0.020000 0.000000 
 0.440000 0.020000 0.000000 
 0.460000 0.020000 0.000000 
 0.480000 0.020000 0.000000 
 0.500000 0.020000 0.000000 
 0.520000 0.020000 0.000000 
 0.540000 0.020000 0.000000 
 0.560000 0.020000 0.000000 
 0.580000 0.020000 0.000000 
 0.600000 0.020000 0.000000 
 0.620000 0.020000 0.000000 
 0.640000 0.020000 0.000000 
 0.660000 0.020000 0.000000 
 0.680000 0.020000 0.000000 
 0.700000 0.020000 0.000000 
 0.720000 0.020000 0.000000 
 0.740000 0.020000 0.000000 
 0.760000 0.020000 0.000000 
 0.780000 0.020000 0.000000 
 0.800000 0.020000 0.000000 
 0.820000 0.020000 0.000000 
 0.840000 0.020000 0.000000 
 0.860000 0.020000 0.000000 
 0.880000 0.020000 0.000000 
 0.900000 0.020000 0.000000 
 0.920000 0.020000 0.000000 
 0.940000 0.020000 0.000000 
 0.960000 0.020000 0.000000 
 0.980000 0.020000 0.000000 
 1.000000 0.020000 0.000000 
 0.000000 0.040000 0.000000 
 0.020000 0.040000 0.000000 
 0.040000 0.040000 0.000000 
 0.060000 0.040000 0.000000 
 0.080000 0.040000 0.000000 
 0.100000 0.040000 0.000000 
 0.120000 0.040000 0.000000 
 0.140000 0.040000 0.000000 
 0.160000 0.040000 0.000000 
 0.180000 0.040000 0.000000 
 0.200000 0.040000 0.000000 
 0.220000 0.040000 0.000000 
 0.240000 0.040000 0.000000 
 0.260000 0.040000 0.000000 
 0.280000 0.040000 0.000000 
 0.300000 0.040000 0.000000 
 0.320000 0.040000 0.000000 
 0.340000 0.040000 0.000000 
 0.360000 0.040000 0.000000 
 0.380000 0.040000 0.000000 
 0.400000 0.040000 0.000000 
 0.420000 0.040000 0.000000 
 0.440000 0.040000 0.000000 
 0.460000 0.040000 0.000000 
 0.480000 0.040000 0.000000 
 0.500000 0.040000 0.000000 
 0.520000 0.040000 0.000000 
 0.540000 0.040000 0.000000 
 0.560000 0.040000 0.000000 
 0.580000 0.040000 0.000000 
 0.600000 0.040000 0.000000 
 0.620000 0.040000 0.000000 
 0.640000 0.040000 0.000000 
 0.660000 0.040000 0.000000 
 0.680000 0.040000 0.000000 
 0.700000 0.040000 0.000000 
 0.720000 0.040000 0.000000 
 0.740000 0.040000 0.000000 
 0.760000 0.040000 0.000000 
 0.780000 0.040000 0.000000 
 0.800000 0.040000 0.000000 
 0.820000 0.040000 0.000000 
 0.840000 0.040000 0.000000 
 0.860000 0.040000 0.000000 
 0.880000 0.040000 0.000000 
 0.900000 0.040000 0.000000 
 0.920000 0.040000 0.000000 
 0.940000 0.040000 0.000000 
 0.960000 0.040000 0.000000 
 0.980000 0.040000 0.000000 
 1.000000 0.040000 0.000000 
 0.000000 0.060000 0.000000 
 0.020000 0.060000 0.000000 
 0.040000 0.060000 0.000000 
 0.060000 0.060000 0.000000 
 0.080000 0.060000 0.000000 
 0.100000 0.060000 0.000000 
 0.120000 0.060000 0.000000 
 0.140000 0.060000 0.000000 
 0.160000 0.060000 0.000000 
 0.180000 0.060000 0.000000 
 0.200000 0.060000 0.000000 
 0.220000 0.060000 0.000000 
 0.240000 0.060000 0.000000 
 0.260000 0.060000 0.000000 
 0.280000 0.060000 0.000000 
 0.300000 0.060000 0.000000 
 0.320000 0.060000 0.000000 
 0.340000 0.060000 0.000000 
 0.360000 0.060000 0.000000 
 0.380000 0.060000 0.000000 
 0.400000 0.060000 0.000000 
 0.420000 0.060000 0.000000 
 0.440000 0.060000 0.000000 
 0.460000 0.060000 0.000000 
 0.480000 0.060000 0.000000 
 0.500000 0.060000 0.000000 
 0.520000 0.060000 0.000000 
 0.540000 0.060000 0.000000 
 0.560000 0.060000 0.000000 
 0.580000 0.060000 0.000000 
 0.600000 0.060000 0.000000 
 0.620000 0.060000 0.000000 
 0.640000 0.060000 0.000000 
 0.660000 0.060000 0.000000 
 0.680000 0.060000 0.000000 
 0.700000 0.060000 0.000000 
 0.720000 0.060000 0.000000 
 0.740000 0.060000 0.000000 
 0.760000 0.060000 0.000000 
 0.780000 0.060000 0.000000 
 0.800000 0.060000 0.000000 
 0.820000 0.060000 0.000000 
 0.840000 0.060000 0.000000 
 0.860000 0.060000 0.000000 
 0.880000 0.060000 0.000000 
 0.900000 0.060000 0.000000 
 0.920000 0.060000 0.000000 
 0.940000 0.060000 0.000000 
 0.960000 0.060000 0.000000 
 0.980000 0.060000 0.000000 
 1.000000 0.060000 0.000000 
 0.000000 0.080000 0.000000 
 0.020000 0.080000 0.000000 
 0.040000 0.080000 0.000000 
 0.060000 0.080000 0.000000 
 0.080000 0.080000 0.000000 
 0.100000 0.080000 0.000000 
 0.120000 0.080000 0.000000 
 0.140000 0.080000 0.000000 
 0.160000 0.080000 0.000000 
 0.180000 0.080000 0.000000 
 0.200000 0.080000 0.000000 
 0.220000 0.080000 0.000000 
 0.240000 0.080000 0.000000 
 0.260000 0.080000 0.000000 
 0.280000 0.080000 0.000000 
 0.300000 0.080000 0.000000 
 0.320000 0.080000 0.000000 
 0.340000 0.080000 0.000000 
 0.360000 0.080000 0.000000 
 0.380000 0.080000 0.000000 
 0.400000 0.080000 0.000000 
 0.420000 0.080000 0.000000 
 0.440000 0.080000 0.000000 
 0.460000 0.080000 0.000000 
 0.480000 0.080000 0.000000 
 0.500000 0.080000 0.000000 
 0.520000 0.080000 0.000000 
 0.540000 0.080000 0.000000 
 0.560000 0.080000 0.000000 
 0.580000 0.080000 0.000000 
 0.600000 0.080000 0.000000 
 0.620000 0.080000 0.000000 
 0.640000 0.080000 0.000000 
 0.660000 0.080000 0.000000 
 0.680000 0.080000 0.000000 
 0.700000 0.080000 0.000000 
 0.720000 0.080000 0.000000 
 0.740000 0.080000 0.000000 
 0.760000 0.080000 0.000000 
 0.780000 0.080000 0.000000 
 0.800000 0.080000 0.000000 
 0.820000 0.080000 0.000000 
 0.840000 0.080000 0.000000 
 0.860000 0.080000 0.000000 
 0.880000 0.080000 0.000000 
 0.900000 0.080000 0.000000 
 0.920000 0.080000 0.000000 
 0.940000 0.080000 0.000000 
 0.960000 0.080000 0.000000 
 0.980000 0.080000 0.000000 
 1.000000 0.080000 0.000000 
 0.000000 0.100000 0.000000 
 0.020000 0.100000 0.000000 
 0.040000 0.100000 0.000000 
 0.060000 0.100000 0.000000 
 0.080000 0.100000 0.000000 
 0.100000 0.100000 0.000000 
 0.120000 0.100000 0.000000 
 0.140000 0.100000 0.000000 
 0.160000 0.100000 0.000000 
 0.180000 0.100000 0.000000 
 0.200000 0.100000 0.000000 
 0.220000 0.100000 0.000000 
 0.240000 0.100000 0.000000 
 0.260000 0.100000 0.000000 
 0.280000 0.100000 0.000000 
 0.300000 0.100000 0.000000 
 0.320000 0.100000 0.000000 
 0.340000 0.100000 0.000000 
 0.360000 0.100000 0.000000 
 0.380000 0.100000 0.000000 
 0.400000 0.100000 0.000000 
 0.420000 0.100000 0.000000 
 0.440000 0.100000 0.000000 
 0.460000 0.100000 0.000000 
 0.480000 0.100000 0.000000 
 0.500000 0.100000 0.000000 
 0.520000 0.100000 0.000000 
 0.540000 0.100000 0.000000 
 0.560000 0.100000 0.000000 
 0.580000 0.100000 0.000000 
 0.600000 0.100000 0.000000 
 0.620000 0.100000 0.000000 
 0.640000 0.100000 0.000000 
 0.660000 0.100000 0.000000 
 0.680000 0.100000 0.000000 
 0.700000 0.100000 0.000000 
 0.720000 0.100000 0.000000 
 0.740000 0.100000 0.000000 
 0.760000 0.100000 0.000000 
 0.780000 0.100000 0.000000 
 0.800000 0.100000 0.000000 
 0.820000 0.100000 0.000000 
 0.840000 0.100000 0.000000 
 0.860000 0.100000 0.000000 
 0.880000 0.100000 0.000000 
 0.900000 0.100000 0.000000 
 0.920000 0.100000 0.000000 
 0.940000 0.100000 0.000000 
 0.960000 0.100000 0.000000 
 0.980000 0.100000 0.000000 
 1.000000 0.100000 0.000000 
 0.000000 0.120000 0.000000 
 0.020000 0.120000 0.000000 
 0.040000 0.120000 0.000000 
 0.060000 0.120000 0.000000 
 0.080000 0.120000 0.000000 
 0.100000 0.120000 0.000000 
 0.120000 0.120000 0.000000 
 0.140000 0.120000 0.000000 
 0.160000 0.120000 0.000000 
 0.180000 0.120000 0.000000 
 0.200000 0.120000 0.000000 
 0.220000 0.120000 0.000000 
 0.240000 0.120000 0.000000 
 0.260000 0.120000 0.000000 
 0.280000 0.120000 0.000000 
 0.300000 0.120000 0.000000 
 0.320000 0.120000 0.000000 
 0.340000 0.120000 0.000000 
 0.360000 0.120000 0.000000 
 0.380000 0.120000 0.000000 
 0.400000 0.120000 0.000000 
 0.420000 0.120000 0.000000 
 0.440000 0.120000 0.000000 
 0.460000 0.120000 0.000000 
 0.480000 0.120000 0.000000 
 0.500000 0.120000 0.000000 
 0.520000 0.120000 0.000000 
 0.540000 0.120000 0.000000 
 0.560000 0.120000 0.000000 
 0.580000 0.120000 0.000000 
 0.600000 0.120000 0.000000 
[...]
<PointData  Scalars="U"> 
<DataArray  type="Float64"  Name="U"  format="ascii"> 
 0.000000e+00
 0.000000e+00
 0.000000e+00
 0.000000e+00
 0.000000e+00
 0.000000e+00
 0.000000e+00
 0.000000e+00
 0.000000e+00
 0.000000e+00
 0.000000e+00
 0.000000e+00
 0.000000e+00
 0.000000e+00
 0.000000e+00
 0.000000e+00
 0.000000e+00
 0.000000e+00
 0.000000e+00
 0.000000e+00
 0.000000e+00
 0.000000e+00
 0.000000e+00
 0.000000e+00
 0.000000e+00
 0.000000e+00
 0.000000e+00
 0.000000e+00
 0.000000e+00
 0.000000e+00
 0.000000e+00
 0.000000e+00
 0.000000e+00
 0.000000e+00
 0.000000e+00
 0.000000e+00
 0.000000e+00
 0.000000e+00
 0.000000e+00
 0.000000e+00
 0.000000e+00
 0.000000e+00
 0.000000e+00
 0.000000e+00
 0.000000e+00
 0.000000e+00
 0.000000e+00
 0.000000e+00
 0.000000e+00
 0.000000e+00
 0.000000e+00
 0.000000e+00
 2.113772e-09
 4.175486e-09
 6.048847e-09
 7.376215e-09
 7.317131e-09
 4.093408e-09
 -5.450653e-09
 -2.425385e-08
 -4.141062e-08
 -7.055654e-09
 1.175912e-07
 2.720341e-07
 1.620137e-07
 1.725106e-05
 -2.442532e-07
 2.629842e-08
 3.378768e-08
 3.681426e-10
 -2.122869e-09
 9.533672e-09
 2.718712e-08
 5.476983e-08
 1.090542e-07
 2.265453e-07
 2.144887e-07
 1.737691e-05
 -3.328455e-07
 -2.398557e-07
 -1.296253e-07
 -3.728128e-08
 2.826957e-08
 6.598446e-08
 8.405320e-08
 1.028951e-07
 1.567396e-07
 3.497693e-08
 1.716932e-05
 -2.796306e-07
 1.581852e-08
 3.425276e-08
 6.458863e-09
 4.608394e-09
 1.095945e-08
 1.623373e-08
 1.845909e-08
 1.784540e-08
 1.502926e-08
 1.065017e-08
 5.090834e-09
 0.000000e+00
 0.000000e+00
 4.266931e-09
 8.505778e-09
 1.256920e-08
 1.598755e-08
 1.754096e-08
 1.431273e-08
 -3.896255e-10
 -4.112552e-08
 -1.327402e-07
 -1.308883e-07
 2.104579e-07
 5.809675e-07
 9.546014e-07
 -1.251483e-06
 -1.431804e-06
 4.841936e-07
 2.952715e-08
 -3.321475e-08
 -1.596457e-08
 1.500840e-08
 4.634740e-08
 8.613043e-08
 1.595622e-07
 3.314445e-07
 9.180610e-07
 -1.277477e-07
 -1.562049e-06
 -4.958627e-07
 -2.350653e-07
 -4.783485e-08
 8.620215e-08
 1.536048e-07
 1.697767e-07
 1.728344e-07
 2.336170e-07
 6.426672e-07
 -1.408972e-06
 -1.475161e-06
 4.764646e-07
 3.385109e-08
 -1.592330e-08
 3.574751e-09
 2.411891e-08
 3.577017e-08
 3.980085e-08
 3.789177e-08
 3.158669e-08
 2.236432e-08
 1.147902e-08
 0.000000e+00
 0.000000e+00
 6.430387e-09
 1.296338e-08
 1.962256e-08
 2.621002e-08
 3.197697e-08
 3.476201e-08
 2.838413e-08
 -6.876823e-09
 -1.469914e-07
 -1.174954e-06
 2.035439e-07
 1.200943e-06
 5.840570e-07
 6.576930e-08
 1.711000e-05
 -3.730422e-07
 -2.195816e-07
 -1.238209e-07
 -3.681733e-08
 2.321385e-08
 5.939967e-08
 8.852822e-08
 1.301372e-07
 1.943349e-07
 1.811957e-07
 -1.674302e-07
 -5.464398e-07
 -5.323570e-07
 -2.977014e-07
 -7.714631e-09
 2.177962e-07
 2.957112e-07
 2.712799e-07
 2.038531e-07
 1.040466e-07
 2.546500e-08
 -1.171066e-07
 1.716088e-05
 -3.662118e-07
 -2.193943e-07
 -8.064275e-08
 9.099409e-09
 4.710580e-08
 6.279591e-08
 6.708150e-08
 6.233176e-08
 5.100670e-08
 3.573831e-08
 1.834285e-08
 0.000000e+00
 0.000000e+00
 8.479610e-09
 1.726229e-08
 2.666778e-08
 3.705405e-08
 4.885791e-08
 6.270149e-08
 7.972968e-08
 1.028929e-07
 1.432232e-07
 1.480160e-07
 1.765193e-05
 2.525966e-07
 3.838656e-07
 8.450101e-07
 -2.416158e-07
 -1.621596e-06
 -4.956865e-07
 -2.022581e-07
 -2.680723e-08
 5.763323e-08
 7.980544e-08
 7.764180e-08
 7.161300e-08
 5.137365e-08
 -3.914272e-08
 -2.544487e-07
 -5.090456e-07
 -6.338755e-07
 -4.454619e-07
 1.059406e-07
 5.272300e-07
 5.384990e-07
 4.062961e-07
 2.581111e-07
 4.228512e-08
 -1.013562e-06
 6.781881e-07
 3.483555e-07
 -1.754291e-06
 -5.525759e-07
 -6.515241e-08
 6.777763e-08
 8.768323e-08
 1.002036e-07
 1.036707e-07
 9.336740e-08
 7.418743e-08
 5.113381e-08
 2.612236e-08
 0.000000e+00
 0.000000e+00
 1.022844e-08
 2.094435e-08
 3.274392e-08
 4.650653e-08
 6.376851e-08
 8.767562e-08
 1.257993e-07
 1.999213e-07
 3.866764e-07
 1.050664e-06
 1.669571e-07
 -1.122444e-06
 -2.648270e-08
 7.898662e-08
 -2.487290e-07
 -6.094410e-07
 -5.278011e-07
 -1.891459e-07
 8.088064e-08
 1.558545e-07
 1.209353e-07
 6.607199e-08
 1.828932e-08
 -2.644282e-08
 -1.035984e-07
 -2.814051e-07
 -6.320364e-07
 -9.325186e-07
 -1.523801e-06
 2.944353e-07
 1.415230e-06
 8.523072e-07
 5.394959e-07
 3.445065e-07
 2.596366e-07
 1.722807e-07
 1.747598e-05
 -5.695368e-07
 -2.086504e-06
 -8.300273e-07
 4.573026e-07
 1.698276e-07
 1.259557e-07
 1.477706e-07
 1.562480e-07
 1.329146e-07
 1.005937e-07
 6.835735e-08
 3.511122e-08
 0.000000e+00
 0.000000e+00
 1.150637e-08
 2.358528e-08
 3.695350e-08
 5.268817e-08
 7.263287e-08
 1.002347e-07
 1.422759e-07
 2.117474e-07
 3.247334e-07
 3.967050e-07
 1.666360e-07
 -1.119986e-07
 -1.089339e-07
 -1.078267e-07
 -3.014703e-07
 -6.293398e-07
 -7.068510e-07
 -9.832929e-08
 4.364571e-07
 3.551332e-07
 1.693059e-07
 4.414711e-08
 -4.333886e-08
 -7.898943e-08
 -6.628842e-08
 -1.367877e-07
 -5.061395e-07
 -2.699182e-06
 -2.341431e-07
 1.802185e-05
 6.308803e-07
 1.252226e-06
 4.999374e-07
 3.288931e-07
 3.970639e-07
 9.614105e-07
 -7.245853e-08
 -1.610467e-06
 -9.183027e-07
 1.553990e-05
 -6.286076e-07
 3.401254e-07
 3.798352e-08
 2.379482e-07
 2.446516e-07
 1.774100e-07
 1.253058e-07
 8.690230e-08
 4.656734e-08
 0.000000e+00
 0.000000e+00
 1.223399e-08
 2.499219e-08
 3.891355e-08
 5.490332e-08
 7.435250e-08
 9.939647e-08
 1.328497e-07
 1.760010e-07
 2.178957e-07
 2.159843e-07
 1.305005e-07
 2.652692e-08
 -2.475513e-08
 -7.749617e-08
 -2.209113e-07
 -5.942274e-07
 -2.741396e-06
 -9.007307e-08
 1.753516e-06
 4.877035e-07
 1.500467e-07
 -4.560739e-09
 -1.562425e-07
 -2.106638e-07
 4.869853e-08
 2.754513e-07
 2.647088e-07
 2.955401e-07
 3.591653e-05
 1.314410e-07
 1.633854e-05
 -1.052950e-07
 7.325883e-08
 1.317361e-07
 2.124952e-07
 2.430141e-07
 -1.283717e-08
 -2.179465e-07
 3.603296e-07
 -5.615614e-07
 1.548747e-05
 -1.982893e-06
 -4.867962e-07
 7.226990e-07
 3.511388e-07
 1.986672e-07
 1.340634e-07
 1.102992e-07
 6.615903e-08
 0.000000e+00
 0.000000e+00
 1.245551e-08
 2.527828e-08
 3.888402e-08
 5.378717e-08
 7.063053e-08
 9.008715e-08
 1.122939e-07
 1.350552e-07
 1.505243e-07
 1.454348e-07
 1.156483e-07
 8.068690e-08
 5.945336e-08
 4.583511e-08
 3.165923e-08
 3.924404e-08
 -3.160499e-08
 3.488486e-05
 -2.738709e-08
 3.519289e-08
 1.388906e-10
 -4.388888e-08
 -1.935707e-07
 -1.237582e-06
 1.197194e-07
 1.121123e-06
 7.707642e-07
 1.999892e-06
 6.191936e-07
 -1.406768e-06
 -5.343860e-07
 -1.587008e-06
 -3.437441e-07
 -9.280602e-08
 -5.898931e-09
 -1.125499e-08
 -5.767799e-08
 -9.489667e-09
 1.127003e-07
 4.604258e-07
 -5.228295e-07
 -1.807533e-06
 1.565588e-05
 -4.078131e-07
 5.708874e-07
 6.760979e-08
 1.116112e-07
 1.658125e-07
 1.107499e-07
 0.000000e+00
 0.000000e+00
 1.231772e-08
 2.479810e-08
 3.758102e-08
 5.074660e-08
 6.423850e-08
 7.770287e-08
 9.020700e-08
 9.998232e-08
 1.049457e-07
 1.051921e-07
 1.059586e-07
 1.149397e-07
 1.357607e-07
 1.749862e-07
 2.721974e-07
 5.844609e-07
 1.847174e-06
 1.489226e-08
 -2.625455e-06
 -4.860416e-07
 -1.385712e-07
 -5.441739e-09
 8.072642e-08
 1.105358e-07
 1.763775e-05
 2.724352e-07
 3.844830e-07
 -5.089709e-07
 3.926848e-07
 6.898396e-07
 -2.407948e-07
 -4.862631e-07
 -3.657415e-07
 -1.925407e-07
 -1.343426e-07
 -1.965544e-07
 -2.219465e-07
 4.004025e-08
 1.761966e-07
 -9.563767e-07
 6.345845e-08
 1.228964e-06
 -3.979348e-07
 1.554914e-05
 -9.504328e-07
 -4.614365e-07
 1.385093e-07
 3.607133e-07
 2.040250e-07
 0.000000e+00
 0.000000e+00
 1.201380e-08
 2.400645e-08
 3.587491e-08
 4.733402e-08
 5.777972e-08
 6.612285e-08
 7.073125e-08
 7.003333e-08
 6.513208e-08
 6.506648e-08
 8.691599e-08
 1.371989e-07
 1.983557e-07
 2.605536e-07
 3.528690e-07
 5.224130e-07
 6.121819e-07
 1.105695e-07
 -4.572577e-07
 -3.832178e-07
 -1.214542e-07
 7.168556e-08
 3.262434e-07
 1.039914e-06
 2.084181e-07
 -1.012848e-06
 1.610943e-07
 3.002010e-07
 1.762715e-05
 -8.182390e-08
 -2.350299e-07
 -3.102720e-07
 -2.635054e-07
 -1.805305e-07
 -1.439836e-07
 -2.463505e-07
 -1.267948e-06
 9.006043e-08
 1.041114e-06
 3.663571e-07
 1.764240e-05
 1.813044e-07
 4.799752e-07
 -9.138277e-07
 -3.377227e-06
 -1.880084e-06
 6.302536e-07
 1.018948e-06
 2.524718e-07
 0.000000e+00
 0.000000e+00
 1.171787e-08
 2.330970e-08
 3.452628e-08
 4.485270e-08
 5.331885e-08
 5.823529e-08
 5.689616e-08
 4.566704e-08
 2.256708e-08
 1.349960e-09
 3.349760e-08
 1.499518e-07
 2.681080e-07
 3.207522e-07
 3.471538e-07
 3.679105e-07
 3.120466e-07
 1.075640e-07
 -9.856368e-08
 -1.282323e-07
 -2.982188e-08
 1.103319e-07
 2.826603e-07
 4.094990e-07
 2.450163e-07
 6.988719e-08
 2.951261e-07
 1.020683e-06
 6.522016e-08
 -1.363621e-06
 -3.936192e-07
 -2.678471e-07
 -1.947030e-07
 -1.184695e-07
 -4.182629e-08
 4.009265e-08
 7.801264e-08
 1.762502e-05
 3.493861e-07
 1.018936e-06
 8.715386e-08
 -1.236694e-06
 -2.518216e-07
 -4.127874e-07
 -6.327712e-07
 1.695567e-05
 1.718730e-05
 -1.085802e-07
 -2.364719e-08
 0.000000e+00
 0.000000e+00
 1.152796e-08
 2.294518e-08
 3.399419e-08
 4.411390e-08
 5.223306e-08
 5.640315e-08
 5.299776e-08
 3.483859e-08
 -1.286090e-08
 -1.157496e-07
 -1.337141e-07
 1.654216e-07
 4.305743e-07
 4.004490e-07
 3.281872e-07
 2.807838e-07
 2.153833e-07
 1.150059e-07
 2.474009e-08
 -8.878865e-10
 3.929139e-08
 1.162352e-07
 1.995209e-07
 2.429900e-07
 2.134761e-07
 1.918147e-07
 2.716502e-07
 3.300947e-07
 5.786800e-08
 -2.790663e-07
 -2.985968e-07
 -2.075074e-07
 -1.354032e-07
 -5.484815e-08
 6.113357e-08
 2.901109e-07
 9.995311e-07
 1.729952e-07
 -1.034172e-06
 8.806243e-08
 -1.118772e-09
 -2.533937e-07
 -2.414294e-07
 -7.344183e-08
 7.037154e-07
 5.677625e-07
 -1.478776e-06
 -1.621538e-06
 -3.198134e-07
 0.000000e+00
 0.000000e+00
 1.142452e-08
 2.289932e-08
 3.431017e-08
 4.523993e-08
 5.484321e-08
 6.161675e-08
 6.267339e-08
 5.119092e-08
 6.655921e-09
 -1.486738e-07
 -1.202117e-06
 1.322145e-07
 1.059506e-06
 4.346298e-07
 2.776396e-07
 2.163467e-07
 1.675251e-07
 1.144000e-07
 7.076010e-08
 5.581229e-08
 7.342172e-08
 1.121271e-07
 1.533592e-07
 1.774822e-07
 1.788510e-07
 1.779659e-07
 1.853835e-07
 1.547906e-07
 3.619596e-08
 -9.760400e-08
 -1.479726e-07
 -1.302016e-07
 -8.565834e-08
 -2.067894e-08
 7.889701e-08
 2.323932e-07
 3.545331e-07
 1.771785e-07
 -5.891336e-08
 -4.403249e-08
 -4.149539e-08
 -1.152278e-07
 -1.504989e-07
 -1.472544e-07
 -4.272164e-08
 7.003247e-08
 -1.591421e-07
 -3.901822e-07
 -2.458584e-07
 0.000000e+00
 0.000000e+00
 1.124246e-08
 2.286616e-08
 3.503773e-08
 4.759347e-08
 6.009069e-08
 7.203193e-08
 8.320677e-08
 9.414539e-08
 1.072215e-07
 1.323733e-07
 1.145617e-07
 1.758472e-05
 1.360874e-07
 1.721645e-07
 1.587115e-07
 1.478945e-07
 1.292801e-07
 1.051772e-07
 8.472361e-08
 7.720272e-08
 8.550411e-08
 1.049448e-07
 1.263815e-07
 1.409669e-07
 1.455976e-07
 1.431609e-07
 1.317538e-07
 9.795819e-08
 3.601092e-08
 -2.932966e-08
 -6.667150e-08
 -7.125344e-08
 -5.379279e-08
 -1.925165e-08
 3.792812e-08
 1.188252e-07
 1.798067e-07
 1.530929e-07
 7.824098e-08
 3.205668e-08
 -2.441072e-09
 -4.535273e-08
 -9.660405e-08
 -2.357278e-07
 -1.301209e-06
 -8.082926e-08
 6.699748e-07
 -3.243512e-08
 -1.058032e-07
 0.000000e+00
 0.000000e+00
 1.064054e-08
 2.222511e-08
 3.532948e-08
 4.999317e-08
 6.594042e-08
 8.332778e-08
 1.042136e-07
 1.357426e-07
 1.999176e-07
 3.738020e-07
 1.022031e-06
 1.192004e-07
 -1.193298e-06
 -1.233273e-07
 4.170432e-08
 8.896930e-08
 9.778999e-08
 9.233976e-08
 8.449388e-08
 8.138479e-08
 8.567946e-08
 9.576316e-08
 1.073326e-07
 1.158430e-07
 1.185774e-07
 1.144370e-07
 1.013889e-07
 7.631642e-08
 4.070823e-08
 4.584579e-09
 -2.080475e-08
 -3.276716e-08
 -3.690101e-08
 -3.995040e-08
 -3.539455e-08
 1.449465e-08
 1.199770e-07
 1.863544e-07
 1.599379e-07
 1.006227e-07
 5.204399e-08
 2.080595e-08
 6.763740e-09
 8.858041e-09
 -4.992685e-08
 1.734767e-05
 -1.773215e-07
 -1.624430e-07
 -1.125661e-07
 0.000000e+00
 0.000000e+00
 9.027651e-09
 1.996375e-08
 3.399458e-08
 5.116379e-08
 7.063177e-08
 9.184559e-08
 1.165001e-07
 1.511405e-07
 2.102554e-07
 3.126058e-07
 3.762908e-07
 1.421726e-07
 -1.320973e-07
 -9.779933e-08
 1.299912e-08
 6.241605e-08
 7.917578e-08
 8.125221e-08
 7.876270e-08
 7.740207e-08
 7.959280e-08
 8.506010e-08
 9.171693e-08
 9.686190e-08
 9.820975e-08
 9.420781e-08
 8.383802e-08
 6.707114e-08
 4.621955e-08
 2.593904e-08
 1.008114e-08
 -2.359194e-09
 -1.968652e-08
 -6.036850e-08
 -1.557940e-07
 -1.738096e-07
 1.095600e-07
 3.405691e-07
 2.651730e-07
 1.514761e-07
 8.942198e-08
 6.906163e-08
 9.567552e-08
 2.323519e-07
 8.321214e-07
 -1.307473e-07
 -1.492246e-06
 -4.208939e-07
 -1.812520e-07
 0.000000e+00
 0.000000e+00
 5.378273e-09
 1.439767e-08
 2.934665e-08
 5.006110e-08
 7.393674e-08
 9.770710e-08
 1.201538e-07
 1.438111e-07
 1.732881e-07
 2.039442e-07
 1.997093e-07
 1.227933e-07
 3.692736e-08
 2.070916e-08
 4.554500e-08
 6.616713e-08
 7.403640e-08
 7.406087e-08
 7.136755e-08
 6.940568e-08
 6.991672e-08
 7.306894e-08
 7.770596e-08
 8.182109e-08
 8.325893e-08
 8.046992e-08
 7.311242e-08
 6.241588e-08
 5.105363e-08
 4.198604e-08
 3.633852e-08
 3.136494e-08
 1.821376e-08
 -2.671796e-08
 -1.846926e-07
 -1.246645e-06
 7.079011e-08
 9.735559e-07
 3.221028e-07
 1.465827e-07
 8.823613e-08
 7.715673e-08
 1.019480e-07
 1.661886e-07
 1.768783e-07
 -1.278434e-07
 -4.700369e-07
 -4.396439e-07
 -2.222785e-07
 0.000000e+00
 0.000000e+00
 -2.140395e-09
 2.462023e-09
 1.846873e-08
 4.565501e-08
 7.771825e-08
 1.055976e-07
 1.231569e-07
 1.297915e-07
 1.288145e-07
 1.249228e-07
 1.214204e-07
 1.166891e-07
 1.082587e-07
 9.882939e-08
 9.101308e-08
 8.389986e-08
 7.656538e-08
 6.928315e-08
 6.295636e-08
 5.867112e-08
 5.737189e-08
 5.944393e-08
 6.419038e-08
 6.956388e-08
 7.274211e-08
 7.157343e-08
 6.599810e-08
 5.850834e-08
 5.327987e-08
 5.394872e-08
 6.102053e-08
 7.143124e-08
 8.138631e-08
 9.018458e-08
 1.063863e-07
 7.455719e-08
 1.752623e-05
 5.700931e-08
 7.493575e-08
 5.201267e-08
 4.681224e-08
 5.227766e-08
 6.513101e-08
 6.866199e-08
 1.148376e-08
 -1.605026e-07
 -4.039253e-07
 -5.006250e-07
 -2.601170e-07
 0.000000e+00
 0.000000e+00
 -1.670912e-08
 -2.173027e-08
 -4.758270e-09
 3.582451e-08
 8.628474e-08
 1.248758e-07
 1.377446e-07
 1.235940e-07
 8.713718e-08
 4.438158e-08
 4.407971e-08
 1.156849e-07
 1.804373e-07
 1.744546e-07
 1.359356e-07
 1.020912e-07
 7.913320e-08
 6.357803e-08
 5.248329e-08
 4.486223e-08
 4.127018e-08
 4.289308e-08
 4.988869e-08
 5.961458e-08
 6.695138e-08
 6.754620e-08
 6.112059e-08
 5.227092e-08
 4.902108e-08
 5.879750e-08
 8.222537e-08
 1.124867e-07
 1.468133e-07
 2.040211e-07
 3.630543e-07
 9.913203e-07
 6.615308e-08
 -1.267638e-06
 -2.138668e-07
 -5.615063e-08
 -4.938998e-09
 1.830612e-08
 3.068363e-08
 2.668341e-08
 -1.421731e-08
 -1.186348e-07
 -3.469977e-07
 -1.479735e-06
 -3.061702e-07
 0.000000e+00
 0.000000e+00
 -4.295984e-08
 -6.932242e-08
 -5.466282e-08
 1.443936e-08
 1.084827e-07
 1.723977e-07
 1.800601e-07
 1.403581e-07
 5.972280e-08
 -7.838010e-08
 -1.333647e-07
 1.258734e-07
 3.490652e-07
 2.775000e-07
 1.699467e-07
 1.084610e-07
 7.457920e-08
 5.376495e-08
 3.880125e-08
 2.715504e-08
 1.979660e-08
 2.043834e-08
 3.233807e-08
 5.218322e-08
 6.867229e-08
 7.140639e-08
 5.930433e-08
 4.044547e-08
 3.045407e-08
 4.830964e-08
 9.717632e-08
 1.528938e-07
 1.966959e-07
 2.433962e-07
 3.221603e-07
 3.573958e-07
 9.365355e-08
 -2.068364e-07
 -1.907546e-07
 -8.775837e-08
 -3.579982e-08
 -7.983539e-09
 9.823991e-09
 2.093831e-08
 2.296307e-08
 1.657443e-08
 1.735501e-08
 -2.230888e-08
 1.742307e-05
 0.000000e+00
 0.000000e+00
 -8.358691e-08
 -1.589926e-07
 -1.680118e-07
 -3.774527e-08
 1.676762e-07
 2.835067e-07
 2.685462e-07
 1.930398e-07
 8.806753e-08
 -1.152903e-07
 -1.208684e-06
 8.970787e-08
 9.839293e-07
 3.304958e-07
 1.538483e-07
 8.891232e-08
 5.818530e-08
 3.882477e-08
 2.236418e-08
 5.690104e-09
 -9.617532e-09
 -1.449753e-08
 5.104688e-09
 4.829149e-08
 8.605386e-08
 9.161415e-08
 6.545413e-08
 2.094901e-08
 -1.859970e-08
 3.580036e-10
 1.064025e-07
 2.125589e-07
 2.467628e-07
 2.453859e-07
 2.382422e-07
 1.941238e-07
 7.543546e-08
 -4.665989e-08
 -8.552087e-08
 -6.871243e-08
 -4.517093e-08
 -2.603221e-08
 -5.436791e-09
 2.471608e-08
 7.099041e-08
 1.493535e-07
 3.375663e-07
 1.023446e-06
 2.662212e-07
 0.000000e+00
 0.000000e+00
 -1.220365e-07
 -3.064599e-07
 -4.506692e-07
 -1.906142e-07
 3.479855e-07
 5.483825e-07
 4.055962e-07
 2.609739e-07
 1.836335e-07
 1.539757e-07
 9.761843e-08
 1.753683e-05
 6.236516e-08
 7.851042e-08
 5.338718e-08
 4.152710e-08
 3.224656e-08
 2.170147e-08
 6.804816e-09
 -1.582168e-08
 -4.792061e-08
 -7.639663e-08
 -5.228017e-08
 5.046136e-08
 1.418872e-07
 1.451658e-07
 9.009851e-08
 4.200985e-09
 -1.268803e-07
 -1.644734e-07
 1.198536e-07
 3.715336e-07
 3.270816e-07
 2.405439e-07
 1.859991e-07
 1.328312e-07
 6.504363e-08
 6.744713e-10
 -3.615094e-08
 -4.738573e-08
 -4.819971e-08
 -4.531427e-08
 -3.084656e-08
 1.297847e-08
 9.449949e-08
 2.031886e-07
 3.389723e-07
 4.373641e-07
 2.808286e-07
 0.000000e+00
 0.000000e+00
 -9.918774e-08
 -3.247988e-07
 -1.552424e-06
 -1.288475e-06
 9.560914e-07
 1.242947e-06
 4.551944e-07
 2.600419e-07
 2.384250e-07
 3.691106e-07
 9.880824e-07
 6.134592e-08
 -1.270820e-06
 -2.147250e-07
 -5.617557e-08
 -7.780602e-09
 7.622013e-09
 8.831260e-09
 -9.716445e-10
 -2.633912e-08
 -8.114938e-08
 -1.913247e-07
 -2.181783e-07
 6.796274e-08
 3.128019e-07
 2.519438e-07
 1.368310e-07
 3.085592e-08
 -1.597583e-07
 -1.235247e-06
 8.348339e-08
 9.982838e-07
 3.629113e-07
 1.983971e-07
 1.355075e-07
 9.357636e-08
 5.246747e-08
 1.419799e-08
 -1.461581e-08
 -3.445266e-08
 -5.234404e-08
 -7.393698e-08
 -8.727183e-08
 -4.150031e-08
 9.381280e-08
 2.335393e-07
 2.959446e-07
 2.768527e-07
 1.671494e-07
 0.000000e+00
 0.000000e+00
 1.608140e-08
 4.572092e-08
 4.338228e-08
 1.748512e-05
 1.749710e-05
 8.070896e-08
 1.134173e-07
 1.258138e-07
 1.765621e-07
 2.703442e-07
 3.210885e-07
 7.050840e-08
 -2.192366e-07
 -1.945751e-07
 -8.544298e-08
 -3.072807e-08
 -4.784722e-09
 5.889754e-09
 5.392152e-09
 -9.958872e-09
 -5.945243e-08
 -2.206630e-07
 -1.281292e-06
 4.410245e-08
 9.608564e-07
 3.257078e-07
 1.640077e-07
 1.139209e-07
 1.091143e-07
 7.314616e-08
 1.753005e-05
 7.103219e-08
 9.951484e-08
 8.200777e-08
 7.146486e-08
 5.701656e-08
 3.772883e-08
 1.663996e-08
 -3.326170e-09
 -2.331776e-08
 -5.072311e-08
 -1.016131e-07
 -2.027971e-07
 -2.151640e-07
 9.171600e-08
 3.622351e-07
 3.248735e-07
 2.191528e-07
 1.139366e-07
 0.000000e+00
 0.000000e+00
 1.225827e-07
 3.699635e-07
 1.191601e-06
 9.308747e-07
 -1.291010e-06
 -1.533678e-06
 -2.852378e-07
 -4.021518e-08
 6.866899e-08
 1.292976e-07
 1.274733e-07
 3.638163e-08
 -6.621894e-08
 -8.998053e-08
 -6.074796e-08
 -2.746652e-08
 -3.360571e-09
 1.302892e-08
 2.463486e-08
 3.394558e-08
 4.412399e-08
 6.525873e-08
 4.251783e-08
 1.750782e-05
 5.686407e-08
 9.816712e-08
 1.077590e-07
 1.623130e-07
 3.284226e-07
 9.681056e-07
 5.601606e-08
 -1.264851e-06
 -2.004247e-07
 -3.697282e-08
 1.254534e-08
 2.598802e-08
 2.477866e-08
 1.720364e-08
 6.951787e-09
 -6.105063e-09
 -2.791919e-08
 -7.919108e-08
 -2.381346e-07
 -1.292579e-06
 4.228946e-08
 9.688333e-07
 3.368065e-07
 1.616895e-07
 7.374539e-08
 0.000000e+00
 0.000000e+00
 1.357826e-07
 3.186224e-07
 4.899167e-07
 3.126632e-07
 -2.064073e-07
 -4.502562e-07
 -2.944925e-07
 -1.078144e-07
 -5.512888e-09
 4.450957e-08
 4.982951e-08
 1.771516e-08
 -2.196049e-08
 -3.884312e-08
 -3.142991e-08
 -1.353306e-08
 5.805851e-09
 2.482585e-08
 4.620549e-08
 7.765188e-08
 1.409591e-07
 3.126059e-07
 9.572876e-07
 5.135914e-08
 -1.259889e-06
 -1.783625e-07
 1.715970e-08
 1.273241e-07
 2.462716e-07
 3.108421e-07
 6.963592e-08
 -2.131288e-07
 -1.835328e-07
 -7.170501e-08
 -1.659693e-08
 8.054994e-09
 1.758135e-08
 1.985428e-08
 1.919003e-08
 1.800953e-08
 1.786053e-08
 2.117255e-08
 3.781555e-08
 1.325294e-08
 1.747937e-05
 2.941895e-08
 6.436900e-08
 4.626117e-08
 2.674735e-08
 0.000000e+00
 0.000000e+00
 9.805129e-08
 1.886631e-07
 2.229098e-07
 1.256497e-07
 -6.370558e-08
 -1.817556e-07
 -1.665030e-07
 -9.495464e-08
 -3.251574e-08
 4.220757e-09
 1.522504e-08
 6.998017e-09
 -7.170943e-09
 -1.453751e-08
 -1.109091e-08
 2.466276e-10
 1.591397e-08