<VTKFile type="UnstructuredGrid"  version="0.1"   >
<UnstructuredGrid>  
<Piece  NumberOfPoints="     2601"  NumberOfCells="     5000">  
<Points>  
<DataArray  type="Float64"  NumberOfComponents="3"  format="ascii">  
 0.000000 0.000000 0.000000 
 0.020000 0.000000 0.000000 
 0.040000 0.000000 0.000000 
 0.060000 0.000000 0.000000 
 0.080000 0.000000 0.000000 
 0.100000 0.000000 0.000000 
 0.120000 0.000000 0.000000 
 0.140000 0.000000 0.000000 
 0.160000 0.000000 0.000000 
 0.180000 0.000000 0.000000 
 0.200000 0.000000 0.000000 
 0.220000 0.000000 0.000000 
 0.240000 0.000000 0.000000 
 0.260000 0.000000 0.000000 
 0.280000 0.000000 0.000000 
 0.300000 0.000000 0.000000 
 0.320000 0.000000 0.000000 
 0.340000 0.000000 0.000000 
 0.360000 0.000000 0.000000 
 0.380000 0.000000 0.000000 
 0.400000 0.000000 0.000000 
 0.420000 0.000000 0.000000 
 0.440000 0.000000 0.000000 
 0.460000 0.000000 0.000000 
 0.480000 0.000000 0.000000 
 0.500000 0.000000 0.000000 
 0.520000 0.000000 0.000000 
 0.540000 0.000000 0.000000 
 0.560000 0.000000 0.000000 
 0.580000 0.000000 0.000000 
 0.600000 0.000000 0.000000 
 0.620000 0.000000 0.000000 
 0.640000 0.000000 0.000000 
 0.660000 0.000000 0.000000 
 0.680000 0.000000 0.000000 
 0.700000 0.000000 0.000000 
 0.720000 0.000000 0.000000 
 0.740000 0.000000 0.000000 
 0.760000 0.000000 0.000000 
 0.780000 0.000000 0.000000 
 0.800000 0.000000 0.000000 
 0.820000 0.000000 0.000000 
 0.840000 0.000000 0.000000 
 0.860000 0.000000 0.000000 
 0.880000 0.000000 0.000000 
 0.900000 0.000000 0.000000 
 0.920000 0.000000 0.000000 
 0.940000 0.000000 0.000000 
 0.960000 0.000000 0.000000 
 0.980000 0.000000 0.000000 
 1.000000 0.000000 0.000000 
 0.000000 0.020000 0.000000 
 0.020000 0.020000 0.000000 
 0.040000 0.020000 0.000000 
 0.060000 0.020000 0.000000 
 0.080000 0.020000 0.000000 
 0.100000 0.020000 0.000000 
 0.120000 0.020000 0.000000 
 0.140000 0.020000 0.000000 
 0.160000 0.020000 0.000000 
 0.180000 0.020000 0.000000 
 0.200000 0.020000 0.000000 
 0.220000 0.020000 0.000000 
 0.240000 0.020000 0.000000 
 0.260000 0.020000 0.000000 
 0.280000 0.020000 0.000000 
 0.300000 0.020000 0.000000 
 0.320000 0.020000 0.000000 
 0.340000 0.020000 0.000000 
 0.360000 0.020000 0.000000 
 0.380000 0.020000 0.000000 
 0.400000 0.020000 0.000000 
 0.420000 0.020000 0.000000 
 0.440000 0.020000 0.000000 
 0.460000 0.020000 0.000000 
 0.480000 0.020000 0.000000 
 0.500000 0.020000 0.000000 
 0.520000 0.020000 0.000000 
 0.540000 0.020000 0.000000 
 0.560000 0.020000 0.000000 
 0.580000 0.020000 0.000000 
 0.600000 0.020000 0.000000 
 0.620000 0.020000 0.000000 
 0.640000 0.020000 0.000000 
 0.660000 0.020000 0.000000 
 0.680000 0.020000 0.000000 
 0.700000 0.020000 0.000000 
 0.720000 0.020000 0.000000 
 0.740000 0.020000 0.000000 
 0.760000 0.020000 0.000000 
 0.780000 0.020000 0.000000 
 0.800000 0.020000 0.000000 
 0.820000 0.020000 0.000000 
 0.840000 0.020000 0.000000 
 0.860000 0.020000 0.000000 
 0.880000 0.020000 0.000000 
 0.900000 0.020000 0.000000 
 0.920000 0.020000 0.000000 
 0.940000 0.020000 0.000000 
 0.960000 0.020000 0.000000 
 0.980000 0.020000 0.000000 
 1.000000 0.020000 0.000000 
 0.000000 0.040000 0.000000 
 0.020000 0.040000 0.000000 
 0.040000 0.040000 0.000000 
 0.060000 0.040000 0.000000 
 0.080000 0.040000 0.000000 
 0.100000 0.040000 0.000000 
 0.120000 0.040000 0.000000 
 0.140000 0.040000 0.000000 
 0.160000 0.040000 0.000000 
 0.180000 0.040000 0.000000 
 0.200000 0.040000 0.000000 
 0.220000 0.040000 0.000000 
 0.240000 0.040000 0.000000 
 0.260000 0.040000 0.000000 
 0.280000 0.040000 0.000000 
 0.300000 0.040000 0.000000 
 0.320000 0.040000 0.000000 
 0.340000 0.040000 0.000000 
 0.360000 0.040000 0.000000 
 0.380000 0.040000 0.000000 
 0.400000 0.040000 0.000000 
 0.420000 0.040000 0.000000 
 0.440000 0.040000 0.000000 
 0.460000 0.040000 0.000000 
 0.480000 0.040000 0.000000 
 0.500000 0.040000 0.000000 
 0.520000 0.040000 0.000000 
 0.540000 0.040000 0.000000 
 0.560000 0.040000 0.000000 
 0.580000 0.040000 0.000000 
 0.600000 0.040000 0.000000 
 0.620000 0.040000 0.000000 
 0.640000 0.040000 0.000000 
 0.660000 0.040000 0.000000 
 0.680000 0.040000 0.000000 
 0.700000 0.040000 0.000000 
 0.720000 0.040000 0.000000 
 0.740000 0.040000 0.000000 
 0.760000 0.040000 0.000000 
 0.780000 0.040000 0.000000 
 0.800000 0.040000 0.000000 
 0.820000 0.040000 0.000000 
 0.840000 0.040000 0.000000 
 0.860000 0.040000 0.000000 
 0.880000 0.040000 0.000000 
 0.900000 0.040000 0.000000 
 0.920000 0.040000 0.000000 
 0.940000 0.040000 0.000000 
 0.960000 0.040000 0.000000 
 0.980000 0.040000 0.000000 
 1.000000 0.040000 0.000000 
 0.000000 0.060000 0.000000 
 0.020000 0.060000 0.000000 
 0.040000 0.060000 0.000000 
 0.060000 0.060000 0.000000 
 0.080000 0.060000 0.000000 
 0.100000 0.060000 0.000000 
 0.120000 0.060000 0.000000 
 0.140000 0.060000 0.000000 
 0.160000 0.060000 0.000000 
 0.180000 0.060000 0.000000 
 0.200000 0.060000 0.000000 
 0.220000 0.060000 0.000000 
 0.240000 0.060000 0.000000 
 0.260000 0.060000 0.000000 
 0.280000 0.060000 0.000000 
 0.300000 0.060000 0.000000 
 0.320000 0.060000 0.000000 
 0.340000 0.060000 0.000000 
 0.360000 0.060000 0.000000 
 0.380000 0.060000 0.000000 
 0.400000 0.060000 0.000000 
 0.420000 0.060000 0.000000 
 0.440000 0.060000 0.000000 
 0.460000 0.060000 0.000000 
 0.480000 0.060000 0.000000 
 0.500000 0.060000 0.000000 
 0.520000 0.060000 0.000000 
 0.540000 0.060000 0.000000 
 0.560000 0.060000 0.000000 
 0.580000 0.060000 0.000000 
 0.600000 0.060000 0.000000 
 0.620000 0.060000 0.000000 
 0.640000 0.060000 0.000000 
 0.660000 0.060000 0.000000 
 0.680000 0.060000 0.000000 
 0.700000 0.060000 0.000000 
 0.720000 0.060000 0.000000 
 0.740000 0.060000 0.000000 
 0.760000 0.060000 0.000000 
 0.780000 0.060000 0.000000 
 0.800000 0.060000 0.000000 
 0.820000 0.060000 0.000000 
 0.840000 0.060000 0.000000 
 0.860000 0.060000 0.000000 
 0.880000 0.060000 0.000000 
 0.900000 0.060000 0.000000 
 0.920000 0.060000 0.000000 
 0.940000 0.060000 0.000000 
 0.960000 0.060000 0.000000 
 0.980000 0.060000 0.000000 
 1.000000 0.060000 0.000000 
 0.000000 0.080000 0.000000 
 0.020000 0.080000 0.000000 
 0.040000 0.080000 0.000000 
 0.060000 0.080000 0.000000 
 0.080000 0.080000 0.000000 
 0.100000 0.080000 0.000000 
 0.120000 0.080000 0.000000 
 0.140000 0.080000 0.000000 
 0.160000 0.080000 0.000000 
 0.180000 0.080000 0.000000 
 0.200000 0.080000 0.000000 
 0.220000 0.080000 0.000000 
 0.240000 0.080000 0.000000 
 0.260000 0.080000 0.000000 
 0.280000 0.080000 0.000000 
 0.300000 0.080000 0.000000 
 0.320000 0.080000 0.000000 
 0.340000 0.080000 0.000000 
 0.360000 0.080000 0.000000 
 0.380000 0.080000 0.000000 
 0.400000 0.080000 0.000000 
 0.420000 0.080000 0.000000 
 0.440000 0.080000 0.000000 
 0.460000 0.080000 0.000000 
 0.480000 0.080000 0.000000 
 0.500000 0.080000 0.000000 
 0.520000 0.080000 0.000000 
 0.540000 0.080000 0.000000 
 0.560000 0.080000 0.000000 
 0.580000 0.080000 0.000000 
 0.600000 0.080000 0.000000 
 0.620000 0.080000 0.000000 
 0.640000 0.080000 0.000000 
 0.660000 0.080000 0.000000 
 0.680000 0.080000 0.000000 
 0.700000 0.080000 0.000000 
 0.720000 0.080000 0.000000 
 0.740000 0.080000 0.000000 
 0.760000 0.080000 0.000000 
 0.780000 0.080000 0.000000 
 0.800000 0.080000 0.000000 
 0.820000 0.080000 0.000000 
 0.840000 0.080000 0.000000 
 0.860000 0.080000 0.000000 
 0.880000 0.080000 0.000000 
 0.900000 0.080000 0.000000 
 0.920000 0.080000 0.000000 
 0.940000 0.080000 0.000000 
 0.960000 0.080000 0.000000 
 0.980000 0.080000 0.000000 
 1.000000 0.080000 0.000000 
 0.000000 0.100000 0.000000 
 0.020000 0.100000 0.000000 
 0.040000 0.100000 0.000000 
 0.060000 0.100000 0.000000 
 0.080000 0.100000 0.000000 
 0.100000 0.100000 0.000000 
 0.120000 0.100000 0.000000 
 0.140000 0.100000 0.000000 
 0.160000 0.100000 0.000000 
 0.180000 0.100000 0.000000 
 0.200000 0.100000 0.000000 
 0.220000 0.100000 0.000000 
 0.240000 0.100000 0.000000 
 0.260000 0.100000 0.000000 
 0.280000 0.100000 0.000000 
 0.300000 0.100000 0.000000 
 0.320000 0.100000 0.000000 
 0.340000 0.100000 0.000000 
 0.360000 0.100000 0.000000 
 0.380000 0.100000 0.000000 
 0.400000 0.100000 0.000000 
 0.420000 0.100000 0.000000 
 0.440000 0.100000 0.000000 
 0.460000 0.100000 0.000000 
 0.480000 0.100000 0.000000 
 0.500000 0.100000 0.000000 
 0.520000 0.100000 0.000000 
 0.540000 0.100000 0.000000 
 0.560000 0.100000 0.000000 
 0.580000 0.100000 0.000000 
 0.600000 0.100000 0.000000 
 0.620000 0.100000 0.000000 
 0.640000 0.100000 0.000000 
 0.660000 0.100000 0.000000 
 0.680000 0.100000 0.000000 
 0.700000 0.100000 0.000000 
 0.720000 0.100000 0.000000 
 0.740000 0.100000 0.000000 
 0.760000 0.100000 0.000000 
 0.780000 0.100000 0.000000 
 0.800000 0.100000 0.000000 
 0.820000 0.100000 0.000000 
 0.840000 0.100000 0.000000 
 0.860000 0.100000 0.000000 
 0.880000 0.100000 0.000000 
 0.900000 0.100000 0.000000 
 0.920000 0.100000 0.000000 
 0.940000 0.100000 0.000000 
 0.960000 0.100000 0.000000 
 0.980000 0.100000 0.000000 
 1.000000 0.100000 0.000000 
 0.000000 0.120000 0.000000 
 0.020000 0.120000 0.000000 
 0.040000 0.120000 0.000000 
 0.060000 0.120000 0.000000 
 0.080000 0.120000 0.000000 
 0.100000 0.120000 0.000000 
 0.120000 0.120000 0.000000 
 0.140000 0.120000 0.000000 
 0.160000 0.120000 0.000000 
 0.180000 0.120000 0.000000 
 0.200000 0.120000 0.000000 
 0.220000 0.120000 0.000000 
 0.240000 0.120000 0.000000 
 0.260000 0.120000 0.000000 
 0.280000 0.120000 0.000000 
 0.300000 0.120000 0.000000 
 0.320000 0.120000 0.000000 
 0.340000 0.120000 0.000000 
 0.360000 0.120000 0.000000 
 0.380000 0.120000 0.000000 
 0.400000 0.120000 0.000000 
 0.420000 0.120000 0.000000 
 0.440000 0.120000 0.000000 
 0.460000 0.120000 0.000000 
 0.480000 0.120000 0.000000 
 0.500000 0.120000 0.000000 
 0.520000 0.120000 0.000000 
 0.540000 0.120000 0.000000 
 0.560000 0.120000 0.000000 
 0.580000 0.120000 0.000000 
 0.600000 0.120000 0.000000 
[...]
<PointData  Scalars="U"> 
<DataArray  type="Float64"  Name="U"  format="ascii"> 
 0.000000e+00
 0.000000e+00
 0.000000e+00
 0.000000e+00
 0.000000e+00
 0.000000e+00
 0.000000e+00
 0.000000e+00
 0.000000e+00
 0.000000e+00
 0.000000e+00
 0.000000e+00
 0.000000e+00
 0.000000e+00
 0.000000e+00
 0.000000e+00
 0.000000e+00
 0.000000e+00
 0.000000e+00
 0.000000e+00
 0.000000e+00
 0.000000e+00
 0.000000e+00
 0.000000e+00
 0.000000e+00
 0.000000e+00
 0.000000e+00
 0.000000e+00
 0.000000e+00
 0.000000e+00
 0.000000e+00
 0.000000e+00
 0.000000e+00
 0.000000e+00
 0.000000e+00
 0.000000e+00
 0.000000e+00
 0.000000e+00
 0.000000e+00
 0.000000e+00
 0.000000e+00
 0.000000e+00
 0.000000e+00
 0.000000e+00
 0.000000e+00
 0.000000e+00
 0.000000e+00
 0.000000e+00
 0.000000e+00
 0.000000e+00
 0.000000e+00
 0.000000e+00
 -4.926716e-10
 -1.649478e-09
 -4.315488e-09
 -9.580232e-09
 -1.831912e-08
 -2.914606e-08
 -3.423029e-08
 -2.002700e-08
 1.443693e-08
 4.344358e-08
 3.952576e-08
 -1.071773e-08
 -1.304934e-07
 -1.890885e-07
 4.404315e-08
 2.386308e-07
 1.377386e-07
 -9.471645e-08
 -1.224869e-06
 -1.763483e-08
 8.045425e-07
 1.619971e-07
 3.593281e-08
 1.473023e-08
 1.155058e-09
 -5.952740e-08
 -2.972814e-07
 -1.426685e-06
 3.696813e-08
 1.054078e-06
 2.961111e-07
 -8.694987e-08
 -1.271662e-06
 -1.152104e-07
 6.494663e-07
 -1.103565e-08
 -7.715825e-08
 -2.639648e-08
 -6.470725e-09
 -4.118896e-09
 4.641845e-09
 1.719098e-08
 2.481837e-08
 2.437398e-08
 1.921807e-08
 1.454384e-08
 1.235751e-08
 1.053138e-08
 5.999074e-09
 0.000000e+00
 0.000000e+00
 -3.534697e-10
 -1.841643e-09
 -6.036875e-09
 -1.540177e-08
 -3.342227e-08
 -6.238633e-08
 -8.975601e-08
 -6.650317e-08
 3.440222e-08
 1.239666e-07
 1.227521e-07
 4.463656e-08
 -1.517824e-07
 -1.248150e-06
 4.174640e-08
 9.305248e-07
 2.816443e-07
 1.220118e-07
 1.783488e-08
 1.742534e-05
 -5.725169e-08
 -1.626575e-08
 3.555553e-10
 2.659041e-08
 3.953586e-08
 1.755602e-08
 -1.158024e-07
 -1.221792e-06
 1.751052e-05
 9.095169e-07
 2.673310e-07
 7.486820e-08
 -7.026485e-08
 1.724826e-05
 -4.048726e-07
 -4.677944e-07
 -2.338949e-07
 9.937465e-09
 7.313311e-10
 -2.021579e-08
 5.069426e-09
 4.048667e-08
 5.896252e-08
 5.377087e-08
 3.728788e-08
 2.576774e-08
 2.421567e-08
 2.421899e-08
 1.610954e-08
 0.000000e+00
 0.000000e+00
 8.489792e-10
 5.214266e-10
 -2.800102e-09
 -1.259320e-08
 -3.607040e-08
 -8.841549e-08
 -1.961474e-07
 -2.204630e-07
 6.925262e-08
 3.204787e-07
 2.718112e-07
 1.820775e-07
 1.425696e-07
 8.116376e-08
 1.751939e-05
 5.432185e-08
 1.106161e-07
 2.310848e-07
 8.400263e-07
 -7.873819e-08
 -1.369742e-06
 -2.528227e-07
 -3.849455e-08
 5.215484e-08
 1.061089e-07
 1.777179e-07
 3.734420e-07
 1.004748e-06
 1.755994e-05
 -1.227000e-06
 -1.223808e-07
 1.406960e-07
 7.587132e-07
 -2.512234e-07
 -1.805003e-06
 -1.886370e-06
 -4.785018e-07
 4.666390e-07
 -6.743576e-08
 -8.475773e-08
 -2.747670e-09
 8.441393e-08
 1.204735e-07
 9.507373e-08
 4.811511e-08
 2.427878e-08
 3.435955e-08
 4.814415e-08
 3.566077e-08
 0.000000e+00
 0.000000e+00
 3.130352e-09
 5.627992e-09
 6.347621e-09
 2.657475e-09
 -1.229324e-08
 -5.938050e-08
 -2.168999e-07
 -1.272540e-06
 6.007686e-08
 9.888164e-07
 3.769549e-07
 2.697510e-07
 3.785516e-07
 9.917792e-07
 6.573603e-08
 -1.258217e-06
 -1.786137e-07
 3.091976e-08
 8.653550e-08
 -1.379477e-07
 -3.192546e-07
 -1.670329e-07
 1.917079e-08
 1.113835e-07
 1.616815e-07
 2.422885e-07
 5.113602e-07
 1.285360e-06
 2.010890e-07
 -1.398442e-06
 -3.134506e-07
 -3.865240e-09
 1.009625e-07
 -1.590148e-07
 -4.887867e-07
 -5.965052e-07
 1.679138e-05
 -7.333388e-07
 -4.814101e-07
 -2.099083e-07
 -1.831503e-08
 1.890417e-07
 2.535448e-07
 1.581911e-07
 2.947676e-08
 -1.989614e-08
 4.121016e-08
 1.057053e-07
 8.156907e-08
 0.000000e+00
 0.000000e+00
 5.969092e-09
 1.230137e-08
 1.933880e-08
 2.742616e-08
 3.713181e-08
 5.036421e-08
 7.645386e-08
 6.030398e-08
 1.753424e-05
 9.546695e-08
 1.557804e-07
 1.964389e-07
 2.887673e-07
 3.398830e-07
 9.018494e-08
 -1.998650e-07
 -1.841808e-07
 -1.210345e-07
 -2.199550e-07
 -3.527752e-07
 -1.856871e-07
 7.421734e-08
 1.680216e-07
 2.143558e-07
 2.025823e-07
 1.399483e-07
 2.008063e-07
 4.972022e-07
 3.820914e-07
 -6.895190e-08
 -1.552386e-07
 -6.071519e-08
 -2.836927e-08
 -7.936366e-08
 -6.532493e-08
 4.446150e-07
 -6.912763e-07
 -3.198887e-06
 -1.073766e-06
 -1.400672e-07
 -1.560176e-07
 4.926379e-07
 5.699992e-07
 2.479488e-07
 -7.894182e-08
 -2.076393e-07
 4.923882e-08
 2.817895e-07
 1.839959e-07
 0.000000e+00
 0.000000e+00
 8.440209e-09
 1.826614e-08
 3.130104e-08
 5.071967e-08
 8.377677e-08
 1.515439e-07
 3.297042e-07
 9.822302e-07
 8.498783e-08
 -1.217017e-06
 -1.266352e-07
 7.182196e-08
 1.554236e-07
 1.608058e-07
 7.180060e-08
 -3.422094e-08
 -7.715547e-08
 -1.154226e-07
 -2.969010e-07
 -1.439949e-06
 -2.583950e-07
 6.226843e-07
 2.908820e-07
 3.988939e-07
 2.918571e-07
 6.770876e-08
 -1.019476e-06
 2.379637e-07
 9.928518e-07
 1.948489e-07
 -1.923292e-08
 -4.791081e-08
 -4.104709e-08
 -3.594066e-08
 -3.803187e-09
 -5.683445e-09
 -3.046600e-07
 -7.531080e-07
 1.635625e-05
 -3.255845e-06
 -1.542389e-06
 1.655559e-06
 1.292253e-06
 2.516530e-07
 -2.199038e-07
 -1.368314e-06
 1.417476e-09
 9.668368e-07
 2.884853e-07
 0.000000e+00
 0.000000e+00
 9.588212e-09
 2.120904e-08
 3.742009e-08
 6.210545e-08
 1.020649e-07
 1.697981e-07
 2.806552e-07
 3.500848e-07
 1.195976e-07
 -1.489777e-07
 -1.026512e-07
 2.596284e-08
 8.978214e-08
 1.014785e-07
 7.303805e-08
 3.528437e-08
 1.628108e-08
 1.267870e-08
 9.051586e-09
 -7.845401e-08
 1.721037e-05
 -1.307238e-06
 6.311322e-08
 9.921182e-07
 3.873081e-07
 2.647469e-07
 1.885085e-07
 1.759529e-05
 5.771506e-08
 9.683360e-09
 -4.499223e-08
 -5.150360e-08
 -3.962099e-08
 -2.199236e-08
 -6.729043e-10
 1.116510e-08
 5.433778e-08
 5.661600e-07
 -3.602461e-07
 -1.663658e-06
 3.443258e-05
 1.725822e-05
 -7.160650e-08
 -1.094968e-07
 -2.295971e-07
 -2.947555e-07
 1.744321e-05
 2.184121e-07
 1.665434e-07
 0.000000e+00
 0.000000e+00
 8.784625e-09
 1.976262e-08
 3.550661e-08
 5.916484e-08
 9.404632e-08
 1.409640e-07
 1.875227e-07
 1.899259e-07
 1.098456e-07
 1.971766e-08
 6.990392e-09
 4.309219e-08
 7.529761e-08
 8.727272e-08
 8.345300e-08
 7.883767e-08
 9.184579e-08
 1.458139e-07
 3.128886e-07
 9.564069e-07
 6.313183e-08
 -1.274531e-06
 1.727307e-05
 1.989991e-08
 1.763642e-07
 3.593143e-07
 1.001501e-06
 7.025643e-08
 -1.286776e-06
 -2.596450e-07
 -1.182156e-07
 -7.006281e-08
 -4.122903e-08
 -1.541718e-08
 1.283909e-08
 5.074861e-08
 1.240059e-07
 2.081145e-07
 2.178767e-07
 1.356063e-06
 5.049194e-07
 -2.665963e-06
 -1.825943e-06
 -4.668531e-07
 -2.040609e-07
 -5.288921e-07
 -7.151419e-08
 -4.530511e-07
 -1.096034e-08
 0.000000e+00
 0.000000e+00
 5.855217e-09
 1.365927e-08
 2.575065e-08
 4.476570e-08
 7.236471e-08
 1.060234e-07
 1.346328e-07
 1.398362e-07
 1.144749e-07
 8.110420e-08
 6.708190e-08
 7.275622e-08
 8.360264e-08
 9.075597e-08
 9.509138e-08
 1.045820e-07
 1.316824e-07
 1.939103e-07
 3.139700e-07
 4.286686e-07
 3.564694e-07
 7.247855e-07
 -1.355544e-07
 -1.306708e-06
 -1.229002e-07
 1.693054e-07
 2.857002e-07
 5.221593e-08
 -2.423976e-07
 -2.297684e-07
 -1.295836e-07
 -7.558832e-08
 -4.091330e-08
 -1.143921e-08
 2.014963e-08
 5.981568e-08
 1.098546e-07
 1.507556e-07
 1.231500e-07
 -8.373811e-07
 3.874155e-08
 1.955338e-07
 -5.832253e-07
 -3.792028e-07
 -4.448388e-08
 1.148755e-07
 1.740819e-05
 -2.799496e-07
 -1.695763e-07
 0.000000e+00
 0.000000e+00
 1.054015e-09
 3.350083e-09
 8.965883e-09
 2.114568e-08
 4.309162e-08
 7.431182e-08
 1.067134e-07
 1.270710e-07
 1.282244e-07
 1.167424e-07
 1.049560e-07
 9.885856e-08
 9.733922e-08
 9.823330e-08
 1.022294e-07
 1.134024e-07
 1.380556e-07
 1.820197e-07
 2.414709e-07
 2.874047e-07
 2.988770e-07
 2.649221e-07
 1.540896e-08
 -2.142589e-07
 -1.210807e-07
 3.885133e-08
 8.546200e-08
 1.164581e-08
 -9.002056e-08
 -1.194777e-07
 -9.594106e-08
 -6.443260e-08
 -3.641153e-08
 -9.681033e-09
 1.946487e-08
 5.462042e-08
 9.851089e-08
 1.512554e-07
 2.052217e-07
 1.350081e-07
 1.737918e-05
 -3.526141e-07
 -3.952368e-07
 -2.263460e-07
 1.248187e-07
 8.733581e-07
 -5.107224e-08
 -1.410392e-06
 -2.994439e-07
 0.000000e+00
 0.000000e+00
 -4.839175e-09
 -1.004348e-08
 -1.430780e-08
 -1.281829e-08
 3.086441e-09
 4.022698e-08
 9.193111e-08
 1.363946e-07
 1.557068e-07
 1.511718e-07
 1.357590e-07
 1.203204e-07
 1.092404e-07
 1.032123e-07
 1.025837e-07
 1.087951e-07
 1.240421e-07
 1.492388e-07
 1.799977e-07
 2.040325e-07
 2.054611e-07
 1.630232e-07
 6.368812e-08
 -2.144272e-08
 -2.178832e-08
 1.761639e-08
 3.080225e-08
 2.103896e-09
 -4.023377e-08
 -6.310976e-08
 -6.197967e-08
 -4.846051e-08
 -3.056984e-08
 -1.035552e-08
 1.267841e-08
 4.020672e-08
 7.773316e-08
 1.455854e-07
 3.140768e-07
 9.181785e-07
 -1.032639e-07
 -1.564244e-06
 -5.321276e-07
 -2.129049e-07
 8.302006e-08
 2.314130e-07
 6.966612e-09
 -2.669229e-07
 -1.971994e-07
 0.000000e+00
 0.000000e+00
 -1.010119e-08
 -2.377097e-08
 -4.251674e-08
 -6.123036e-08
 -6.068249e-08
 -1.176961e-08
 8.517814e-08
 1.749566e-07
 2.091130e-07
 1.957517e-07
 1.653035e-07
 1.368201e-07
 1.160966e-07
 1.030218e-07
 9.626503e-08
 9.500829e-08
 9.920567e-08
 1.092312e-07
 1.248810e-07
 1.428060e-07
 1.527425e-07
 1.393891e-07
 9.959342e-08
 5.737861e-08
 3.714588e-08
 3.330693e-08
 2.611189e-08
 7.064242e-09
 -1.658952e-08
 -3.344393e-08
 -3.910388e-08
 -3.577829e-08
 -2.671206e-08
 -1.374636e-08
 1.823630e-09
 1.781630e-08
 3.294181e-08
 6.199196e-08
 1.548036e-07
 2.381242e-07
 -4.474823e-08
 -5.059226e-07
 -5.816932e-07
 -2.080209e-07
 1.279112e-07
 1.364582e-07
 2.739022e-08
 -5.665746e-08
 -5.286799e-08
 0.000000e+00
 0.000000e+00
 -1.151756e-08
 -3.146959e-08
 -6.823087e-08
 -1.258434e-07
 -1.777112e-07
 -1.247161e-07
 8.727535e-08
 2.820836e-07
 3.131418e-07
 2.543826e-07
 1.905432e-07
 1.446985e-07
 1.151835e-07
 9.663642e-08
 8.458794e-08
 7.584967e-08
 6.849031e-08
 6.314192e-08
 6.622429e-08
 8.817031e-08
 1.251319e-07
 1.484710e-07
 1.381805e-07
 1.072717e-07
 7.721905e-08
 5.500721e-08
 3.638011e-08
 1.729615e-08
 -1.353369e-09
 -1.621341e-08
 -2.524548e-08
 -2.850441e-08
 -2.664738e-08
 -1.995334e-08
 -9.599211e-09
 -2.021791e-09
 -1.628781e-08
 -8.994854e-08
 -1.092119e-07
 1.023322e-07
 1.386189e-07
 -2.547916e-07
 -1.506438e-06
 -2.585541e-07
 6.627590e-07
 1.014041e-07
 2.394393e-08
 3.906522e-08
 4.648137e-08
 0.000000e+00
 0.000000e+00
 -4.558587e-09
 -2.206271e-08
 -6.988683e-08
 -1.786870e-07
 -4.003449e-07
 -4.561887e-07
 1.151032e-07
 6.079134e-07
 4.991295e-07
 3.053788e-07
 1.948436e-07
 1.360016e-07
 1.035324e-07
 8.397154e-08
 6.977489e-08
 5.565311e-08
 3.678923e-08
 9.967718e-09
 -1.369162e-08
 1.247435e-08
 1.129280e-07
 1.987219e-07
 1.984623e-07
 1.529269e-07
 1.074113e-07
 7.342423e-08
 4.815377e-08
 2.753070e-08
 9.760057e-09
 -5.231463e-09
 -1.723795e-08
 -2.621726e-08
 -3.148062e-08
 -3.060407e-08
 -2.030965e-08
 -3.605500e-09
 -8.186730e-09
 -1.330979e-07
 -1.192107e-06
 8.175478e-08
 8.982176e-07
 1.543828e-07
 -1.568400e-07
 1.710499e-05
 -4.402750e-07
 -2.335226e-07
 -4.549845e-08
 1.431561e-07
 2.245850e-07
 0.000000e+00
 0.000000e+00
 1.474142e-08
 1.565325e-08
 -1.520023e-08
 -1.193535e-07
 -4.508833e-07
 -2.583104e-06
 5.646063e-08
 1.879291e-06
 5.989597e-07
 2.652570e-07
 1.504816e-07
 1.029128e-07
 7.987491e-08
 6.627430e-08
 5.491237e-08
 4.023758e-08
 1.446606e-08
 -3.775344e-08
 -1.437706e-07
 -1.669741e-07
 1.201710e-07
 3.628967e-07
 2.999219e-07
 1.916016e-07
 1.242288e-07
 8.315048e-08
 5.576549e-08
 3.521939e-08
 1.810436e-08
 2.698120e-09
 -1.216201e-08
 -2.731455e-08
 -4.214024e-08
 -5.140429e-08
 -4.110288e-08
 6.833061e-09
 8.962033e-08
 1.748862e-07
 1.686776e-07
 1.760477e-05
 1.174864e-07
 2.097345e-07
 7.193727e-07
 -3.890727e-07
 -2.796994e-06
 -5.415284e-07
 -5.232363e-07
 1.830589e-07
 8.777563e-07
 0.000000e+00
 0.000000e+00
 4.751063e-08
 8.247005e-08
 1.002056e-07
 1.078008e-07
 1.308350e-07
 6.394658e-08
 3.497231e-05
 4.579861e-08
 9.608521e-08
 6.105086e-08
 5.159790e-08
 4.875475e-08
 4.783098e-08
 4.656813e-08
 4.303992e-08
 3.474776e-08
 1.603039e-08
 -3.226239e-08
 -1.877998e-07
 -1.240716e-06
 8.978073e-08
 1.005082e-06
 3.611783e-07
 1.851510e-07
 1.160666e-07
 8.015326e-08
 5.709099e-08
 3.974299e-08
 2.480890e-08
 1.009900e-08
 -6.608135e-09
 -2.804041e-08
 -5.672449e-08
 -9.024730e-08
 -1.031931e-07
 -2.530465e-08
 1.899216e-07
 5.005981e-07
 1.171571e-06
 2.211429e-07
 -1.138498e-06
 -7.112218e-08
 7.799798e-08
 -1.014063e-07
 -2.995083e-07
 1.730494e-05
 -5.003986e-08
 1.747007e-05
 -5.500748e-09
 0.000000e+00
 0.000000e+00
 9.428721e-08
 1.685646e-07
 2.278361e-07
 3.276213e-07
 6.370307e-07
 1.893290e-06
 4.965838e-08
 -2.606690e-06
 -4.864359e-07
 -1.603139e-07
 -5.249311e-08
 -7.074219e-09
 1.616181e-08
 2.906825e-08
 3.555964e-08
 3.806678e-08
 4.051837e-08
 5.017765e-08
 8.091937e-08
 7.520624e-08
 1.755417e-05
 1.029997e-07
 1.266133e-07
 9.899802e-08
 8.087825e-08
 6.593635e-08
 5.321494e-08
 4.200696e-08
 3.127002e-08
 1.938809e-08
 3.619725e-09
 -2.099958e-08
 -6.353879e-08
 -1.389044e-07
 -2.572586e-07
 -2.247333e-07
 2.273353e-07
 6.724484e-07
 6.910216e-07
 3.202165e-07
 -5.323917e-08
 -9.508465e-08
 -8.932998e-08
 4.325892e-09
 8.971865e-07
 3.878672e-07
 -2.986364e-07
 -1.760616e-07
 -1.293741e-06
 0.000000e+00
 0.000000e+00
 1.652464e-07
 2.779877e-07
 3.280052e-07
 3.908759e-07
 5.392066e-07
 6.141784e-07
 9.752597e-08
 -4.898438e-07
 -4.430931e-07
 -2.230119e-07
 -1.073071e-07
 -4.426707e-08
 -6.231751e-09
 1.780735e-08
 3.233818e-08
 4.201703e-08
 5.855603e-08
 1.145416e-07
 3.018988e-07
 9.855598e-07
 1.138524e-07
 -1.193908e-06
 -1.393078e-07
 7.135360e-09
 4.291143e-08
 4.947583e-08
 4.776888e-08
 4.371390e-08
 3.870304e-08
 3.221659e-08
 2.203670e-08
 2.851001e-09
 -3.826169e-08
 -1.357783e-07
 -3.926173e-07
 -1.456050e-06
 1.896665e-07
 1.384917e-06
 6.823191e-07
 3.275554e-07
 1.096820e-07
 5.709666e-09
 -1.189484e-07
 -1.092944e-06
 3.062857e-07
 1.070591e-06
 2.376129e-07
 -8.250500e-08
 -2.173671e-07
 0.000000e+00
 0.000000e+00
 2.941092e-07
 4.708265e-07
 4.129512e-07
 3.544881e-07
 3.424145e-07
 2.707351e-07
 5.143377e-08
 -1.751901e-07
 -2.350771e-07
 -1.821948e-07
 -1.145955e-07
 -5.908808e-08
 -1.561014e-08
 1.609118e-08
 3.497231e-08
 4.211207e-08
 4.499799e-08
 7.246428e-08
 1.920083e-07
 3.480120e-07
 1.948884e-07
 -7.867319e-08
 -8.264250e-08
 -4.940870e-09
 2.721496e-08
 3.941747e-08
 4.407203e-08
 4.611005e-08
 4.736528e-08
 4.829256e-08
 4.839512e-08
 4.572324e-08
 3.454927e-08
 -3.386003e-09
 -1.366393e-07
 -1.209087e-06
 1.759265e-05
 1.059271e-06
 4.391807e-07
 2.237450e-07
 1.302943e-07
 1.034829e-07
 1.299407e-07
 1.281363e-07
 1.759079e-05
 7.622890e-08
 2.383176e-08
 -5.556888e-08
 -6.934853e-08
 0.000000e+00
 0.000000e+00
 2.890488e-07
 1.070377e-06
 4.125285e-07
 2.563895e-07
 1.994988e-07
 1.311309e-07
 2.183988e-08
 -8.643347e-08
 -1.403920e-07
 -1.387721e-07
 -1.072780e-07
 -6.238682e-08
 -1.350670e-08
 2.758512e-08
 5.020523e-08
 4.905014e-08
 1.699209e-08
 -6.614677e-08
 -6.976565e-08
 1.957736e-07
 3.413336e-07
 1.789103e-07
 5.499725e-08
 2.671044e-08
 2.890869e-08
 3.579072e-08
 4.254615e-08
 4.909000e-08
 5.621810e-08
 6.499003e-08
 7.702527e-08
 9.553369e-08
 1.283482e-07
 1.986842e-07
 3.915471e-07
 1.014530e-06
 1.757169e-05
 -1.203138e-06
 -1.127098e-07
 3.044561e-08
 8.570412e-08
 1.517198e-07
 3.225618e-07
 9.600650e-07
 3.475847e-08
 -1.303571e-06
 -2.473060e-07
 -8.508000e-08
 -3.191036e-08
 0.000000e+00
 0.000000e+00
 1.745453e-05
 3.406597e-08
 8.673413e-08
 8.538123e-08
 7.810316e-08
 4.721924e-08
 -6.506041e-09
 -6.446712e-08
 -1.056830e-07
 -1.221247e-07
 -1.121291e-07
 -7.061808e-08
 -3.438290e-09
 5.888156e-08
 8.909349e-08
 8.421542e-08
 3.783988e-08
 -1.219150e-07
 -1.188884e-06
 1.084563e-07
 9.719817e-07
 2.826599e-07
 9.270904e-08
 3.814993e-08
 2.846720e-08
 3.281404e-08
 4.131474e-08
 5.151147e-08
 6.350481e-08
 7.864751e-08
 9.980169e-08
 1.329600e-07
 1.917010e-07
 3.097930e-07
 5.788637e-07
 1.278534e-06
 1.249864e-07
 -1.477728e-06
 -3.816781e-07
 -9.872398e-08
 2.905384e-08
 1.195241e-07
 2.200159e-07
 2.531265e-07
 -2.711104e-08
 -3.096749e-07
 -2.082957e-07
 -3.131077e-08
 1.659665e-08
 0.000000e+00
 0.000000e+00
 -2.593862e-07
 -1.401266e-06
 -2.690580e-07
 -7.582221e-08
 -1.696278e-08
 -1.018085e-08
 -3.017948e-08
 -6.228746e-08
 -9.697095e-08
 -1.303477e-07
 -1.501259e-07
 -1.104891e-07
 1.232239e-08
 1.282083e-07
 1.628160e-07
 1.525534e-07
 1.401475e-07
 1.435808e-07
 1.021012e-07
 1.754026e-05
 5.225312e-08
 5.254208e-08
 2.004131e-08
 1.262441e-08
 1.700702e-08
 2.669966e-08
 3.872976e-08
 5.230874e-08
 6.786214e-08
 8.675065e-08
 1.116558e-07
 1.476049e-07
 2.036059e-07
 2.933695e-07
 4.218854e-07
 4.636538e-07
 1.240819e-07
 -2.616253e-07
 -2.517965e-07
 -1.020779e-07
 1.348489e-09
 6.957821e-08
 9.939706e-08
 4.051753e-08
 -1.681363e-07
 -3.128605e-07
 -7.212695e-08
 1.772720e-07
 1.231564e-07
 0.000000e+00
 0.000000e+00
 -1.840215e-07
 -3.654454e-07
 -2.766038e-07
 -1.339968e-07
 -6.613216e-08
 -4.173104e-08
 -4.246566e-08
 -5.885071e-08
 -8.922148e-08
 -1.438181e-07
 -2.477607e-07
 -2.630514e-07
 3.943855e-08
 3.063578e-07
 2.775607e-07
 2.172020e-07
 2.290497e-07
 3.713530e-07
 9.935310e-07
 6.350102e-08
 -1.276609e-06
 -2.289326e-07
 -7.465999e-08
 -2.391308e-08
 8.311323e-10
 1.859995e-08
 3.477696e-08
 5.126937e-08
 6.908739e-08
 8.920808e-08
 1.131249e-07
 1.431727e-07
 1.818922e-07
 2.279226e-07
 2.621056e-07
 2.294874e-07
 9.116743e-08
 -5.471754e-08
 -9.300872e-08
 -5.120076e-08
 5.566440e-09
 4.888789e-08
 6.029776e-08
 4.764909e-09
 -1.994609e-07
 -1.315283e-06
 -2.812674e-08
 8.684399e-07
 2.126310e-07
 0.000000e+00
 0.000000e+00
 -1.082429e-07
 -1.801986e-07
 -1.705281e-07
 -1.186771e-07
 -7.444646e-08
 -4.941452e-08
 -4.025931e-08
 -4.334817e-08
 -6.031346e-08
 -1.086335e-07
 -2.650975e-07
 -1.317373e-06
 1.994380e-08
 9.528012e-07
 3.400391e-07
 2.119916e-07
 2.164156e-07
 2.923955e-07
 3.341672e-07
 7.655763e-08
 -2.201384e-07
 -2.016140e-07
 -9.611059e-08
 -4.109240e-08
 -1.001183e-08
 1.166273e-08
 3.039220e-08
 4.890288e-08
 6.809938e-08
 8.802966e-08
 1.085739e-07
 1.296702e-07
 1.504494e-07
 1.665961e-07
 1.666587e-07
 1.346767e-07
 7.070760e-08
 8.405972e-09
 -1.710133e-08
 -5.612827e-09
 2.406612e-08
 5.703429e-08
 8.303939e-08
 9.446805e-08
 9.770814e-08
 4.577391e-08
 1.748227e-05
 7.419330e-09
 2.538578e-08
 0.000000e+00
 0.000000e+00
 -6.061494e-08
 -1.000729e-07
 -1.055751e-07
 -8.682732e-08
 -6.203677e-08
 -4.133173e-08
 -2.658163e-08
 -1.603285e-08
 -6.869338e-09
 4.722416e-09
 2.920812e-08
 1.176627e-08
 1.748408e-05
 4.136529e-08
 9.079080e-08
 1.032793e-07
 1.346872e-07
 1.639813e-07
 1.469743e-07
 4.667469e-08
 -6.289474e-08
 -9.243633e-08
 -6.764462e-08
 -3.688554e-08
 -1.269045e-08
 7.117977e-09
 2.594379e-08
 4.571127e-08
 6.636063e-08
 8.627667e-08
 1.033882e-07
 1.159695e-07
 1.223371e-07
 1.199419e-07
 1.056955e-07
 7.952586e-08
 4.904679e-08
 2.666880e-08
 1.868382e-08
 2.334997e-08
 4.004589e-08
 7.215019e-08
 1.222014e-07
 1.989790e-07
 3.683569e-07
 9.958161e-07
 6.600332e-08
 -1.267893e-06
 -2.015916e-07
 0.000000e+00
 0.000000e+00
 -3.496270e-08
 -5.898600e-08
 -6.622648e-08
 -5.902086e-08
 -4.410597e-08
 -2.677704e-08
 -8.583050e-09
 1.273488e-08
 4.475581e-08
 1.093324e-07
 2.829529e-07
 9.301271e-07
 2.670622e-08
 -1.283159e-06
 -2.040857e-07
 -2.154267e-08
 4.950861e-08
 7.816052e-08
 7.066552e-08
 3.041634e-08
 -1.541448e-08
 -3.799670e-08
 -3.646274e-08
 -2.460845e-08
 -1.098196e-08
 3.274491e-09
 2.019889e-08
 4.135439e-08
 6.528813e-08
 8.742380e-08
 1.027629e-07
 1.083076e-07
 1.027907e-07
 8.556121e-08
 5.818103e-08
 2.984575e-08
 1.791110e-08
 2.875410e-08
 4.229583e-08
 4.127608e-08
 4.016691e-08
 6.928755e-08
 1.414549e-07
 2.407430e-07
 3.543011e-07
 3.989351e-07
 1.324350e-07
 -1.692343e-07
 -1.416638e-07
 0.000000e+00
 0.000000e+00
 -2.111598e-08
 -3.631331e-08
 -4.211232e-08
 -3.853900e-08
 -2.789786e-08
 -1.249122e-08
 7.023346e-09
 3.259659e-08
 7.017925e-08
 1.323214e-07
 2.351193e-07