<VTKFile type="UnstructuredGrid"  version="0.1"   >
<UnstructuredGrid>  
<Piece  NumberOfPoints="     2601"  NumberOfCells="     5000">  
<Points>  
<DataArray  type="Float64"  NumberOfComponents="3"  format="ascii">  
 0.000000 0.000000 0.000000 
 0.020000 0.000000 0.000000 
 0.040000 0.000000 0.000000 
 0.060000 0.000000 0.000000 
 0.080000 0.000000 0.000000 
 0.100000 0.000000 0.000000 
 0.120000 0.000000 0.000000 
 0.140000 0.000000 0.000000 
 0.160000 0.000000 0.000000 
 0.180000 0.000000 0.000000 
 0.200000 0.000000 0.000000 
 0.220000 0.000000 0.000000 
 0.240000 0.000000 0.000000 
 0.260000 0.000000 0.000000 
 0.280000 0.000000 0.000000 
 0.300000 0.000000 0.000000 
 0.320000 0.000000 0.000000 
 0.340000 0.000000 0.000000 
 0.360000 0.000000 0.000000 
 0.380000 0.000000 0.000000 
 0.400000 0.000000 0.000000 
 0.420000 0.000000 0.000000 
 0.440000 0.000000 0.000000 
 0.460000 0.000000 0.000000 
 0.480000 0.000000 0.000000 
 0.500000 0.000000 0.000000 
 0.520000 0.000000 0.000000 
 0.540000 0.000000 0.000000 
 0.560000 0.000000 0.000000 
 0.580000 0.000000 0.000000 
 0.600000 0.000000 0.000000 
 0.620000 0.000000 0.000000 
 0.640000 0.000000 0.000000 
 0.660000 0.000000 0.000000 
 0.680000 0.000000 0.000000 
 0.700000 0.000000 0.000000 
 0.720000 0.000000 0.000000 
 0.740000 0.000000 0.000000 
 0.760000 0.000000 0.000000 
 0.780000 0.000000 0.000000 
 0.800000 0.000000 0.000000 
 0.820000 0.000000 0.000000 
 0.840000 0.000000 0.000000 
 0.860000 0.000000 0.000000 
 0.880000 0.000000 0.000000 
 0.900000 0.000000 0.000000 
 0.920000 0.000000 0.000000 
 0.940000 0.000000 0.000000 
 0.960000 0.000000 0.000000 
 0.980000 0.000000 0.000000 
 1.000000 0.000000 0.000000 
 0.000000 0.020000 0.000000 
 0.020000 0.020000 0.000000 
 0.040000 0.020000 0.000000 
 0.060000 0.020000 0.000000 
 0.080000 0.020000 0.000000 
 0.100000 0.020000 0.000000 
 0.120000 0.020000 0.000000 
 0.140000 0.020000 0.000000 
 0.160000 0.020000 0.000000 
 0.180000 0.020000 0.000000 
 0.200000 0.020000 0.000000 
 0.220000 0.020000 0.000000 
 0.240000 0.020000 0.000000 
 0.260000 0.020000 0.000000 
 0.280000 0.020000 0.000000 
 0.300000 0.020000 0.000000 
 0.320000 0.020000 0.000000 
 0.340000 0.020000 0.000000 
 0.360000 0.020000 0.000000 
 0.380000 0.020000 0.000000 
 0.400000 0.020000 0.000000 
 0.420000 0.020000 0.000000 
 0.440000 0.020000 0.000000 
 0.460000 0.020000 0.000000 
 0.480000 0.020000 0.000000 
 0.500000 0.020000 0.000000 
 0.520000 0.020000 0.000000 
 0.540000 0.020000 0.000000 
 0.560000 0.020000 0.000000 
 0.580000 0.020000 0.000000 
 0.600000 0.020000 0.000000 
 0.620000 0.020000 0.000000 
 0.640000 0.020000 0.000000 
 0.660000 0.020000 0.000000 
 0.680000 0.020000 0.000000 
 0.700000 0.020000 0.000000 
 0.720000 0.020000 0.000000 
 0.740000 0.020000 0.000000 
 0.760000 0.020000 0.000000 
 0.780000 0.020000 0.000000 
 0.800000 0.020000 0.000000 
 0.820000 0.020000 0.000000 
 0.840000 0.020000 0.000000 
 0.860000 0.020000 0.000000 
 0.880000 0.020000 0.000000 
 0.900000 0.020000 0.000000 
 0.920000 0.020000 0.000000 
 0.940000 0.020000 0.000000 
 0.960000 0.020000 0.000000 
 0.980000 0.020000 0.000000 
 1.000000 0.020000 0.000000 
 0.000000 0.040000 0.000000 
 0.020000 0.040000 0.000000 
 0.040000 0.040000 0.000000 
 0.060000 0.040000 0.000000 
 0.080000 0.040000 0.000000 
 0.100000 0.040000 0.000000 
 0.120000 0.040000 0.000000 
 0.140000 0.040000 0.000000 
 0.160000 0.040000 0.000000 
 0.180000 0.040000 0.000000 
 0.200000 0.040000 0.000000 
 0.220000 0.040000 0.000000 
 0.240000 0.040000 0.000000 
 0.260000 0.040000 0.000000 
 0.280000 0.040000 0.000000 
 0.300000 0.040000 0.000000 
 0.320000 0.040000 0.000000 
 0.340000 0.040000 0.000000 
 0.360000 0.040000 0.000000 
 0.380000 0.040000 0.000000 
 0.400000 0.040000 0.000000 
 0.420000 0.040000 0.000000 
 0.440000 0.040000 0.000000 
 0.460000 0.040000 0.000000 
 0.480000 0.040000 0.000000 
 0.500000 0.040000 0.000000 
 0.520000 0.040000 0.000000 
 0.540000 0.040000 0.000000 
 0.560000 0.040000 0.000000 
 0.580000 0.040000 0.000000 
 0.600000 0.040000 0.000000 
 0.620000 0.040000 0.000000 
 0.640000 0.040000 0.000000 
 0.660000 0.040000 0.000000 
 0.680000 0.040000 0.000000 
 0.700000 0.040000 0.000000 
 0.720000 0.040000 0.000000 
 0.740000 0.040000 0.000000 
 0.760000 0.040000 0.000000 
 0.780000 0.040000 0.000000 
 0.800000 0.040000 0.000000 
 0.820000 0.040000 0.000000 
 0.840000 0.040000 0.000000 
 0.860000 0.040000 0.000000 
 0.880000 0.040000 0.000000 
 0.900000 0.040000 0.000000 
 0.920000 0.040000 0.000000 
 0.940000 0.040000 0.000000 
 0.960000 0.040000 0.000000 
 0.980000 0.040000 0.000000 
 1.000000 0.040000 0.000000 
 0.000000 0.060000 0.000000 
 0.020000 0.060000 0.000000 
 0.040000 0.060000 0.000000 
 0.060000 0.060000 0.000000 
 0.080000 0.060000 0.000000 
 0.100000 0.060000 0.000000 
 0.120000 0.060000 0.000000 
 0.140000 0.060000 0.000000 
 0.160000 0.060000 0.000000 
 0.180000 0.060000 0.000000 
 0.200000 0.060000 0.000000 
 0.220000 0.060000 0.000000 
 0.240000 0.060000 0.000000 
 0.260000 0.060000 0.000000 
 0.280000 0.060000 0.000000 
 0.300000 0.060000 0.000000 
 0.320000 0.060000 0.000000 
 0.340000 0.060000 0.000000 
 0.360000 0.060000 0.000000 
 0.380000 0.060000 0.000000 
 0.400000 0.060000 0.000000 
 0.420000 0.060000 0.000000 
 0.440000 0.060000 0.000000 
 0.460000 0.060000 0.000000 
 0.480000 0.060000 0.000000 
 0.500000 0.060000 0.000000 
 0.520000 0.060000 0.000000 
 0.540000 0.060000 0.000000 
 0.560000 0.060000 0.000000 
 0.580000 0.060000 0.000000 
 0.600000 0.060000 0.000000 
 0.620000 0.060000 0.000000 
 0.640000 0.060000 0.000000 
 0.660000 0.060000 0.000000 
 0.680000 0.060000 0.000000 
 0.700000 0.060000 0.000000 
 0.720000 0.060000 0.000000 
 0.740000 0.060000 0.000000 
 0.760000 0.060000 0.000000 
 0.780000 0.060000 0.000000 
 0.800000 0.060000 0.000000 
 0.820000 0.060000 0.000000 
 0.840000 0.060000 0.000000 
 0.860000 0.060000 0.000000 
 0.880000 0.060000 0.000000 
 0.900000 0.060000 0.000000 
 0.920000 0.060000 0.000000 
 0.940000 0.060000 0.000000 
 0.960000 0.060000 0.000000 
 0.980000 0.060000 0.000000 
 1.000000 0.060000 0.000000 
 0.000000 0.080000 0.000000 
 0.020000 0.080000 0.000000 
 0.040000 0.080000 0.000000 
 0.060000 0.080000 0.000000 
 0.080000 0.080000 0.000000 
 0.100000 0.080000 0.000000 
 0.120000 0.080000 0.000000 
 0.140000 0.080000 0.000000 
 0.160000 0.080000 0.000000 
 0.180000 0.080000 0.000000 
 0.200000 0.080000 0.000000 
 0.220000 0.080000 0.000000 
 0.240000 0.080000 0.000000 
 0.260000 0.080000 0.000000 
 0.280000 0.080000 0.000000 
 0.300000 0.080000 0.000000 
 0.320000 0.080000 0.000000 
 0.340000 0.080000 0.000000 
 0.360000 0.080000 0.000000 
 0.380000 0.080000 0.000000 
 0.400000 0.080000 0.000000 
 0.420000 0.080000 0.000000 
 0.440000 0.080000 0.000000 
 0.460000 0.080000 0.000000 
 0.480000 0.080000 0.000000 
 0.500000 0.080000 0.000000 
 0.520000 0.080000 0.000000 
 0.540000 0.080000 0.000000 
 0.560000 0.080000 0.000000 
 0.580000 0.080000 0.000000 
 0.600000 0.080000 0.000000 
 0.620000 0.080000 0.000000 
 0.640000 0.080000 0.000000 
 0.660000 0.080000 0.000000 
 0.680000 0.080000 0.000000 
 0.700000 0.080000 0.000000 
 0.720000 0.080000 0.000000 
 0.740000 0.080000 0.000000 
 0.760000 0.080000 0.000000 
 0.780000 0.080000 0.000000 
 0.800000 0.080000 0.000000 
 0.820000 0.080000 0.000000 
 0.840000 0.080000 0.000000 
 0.860000 0.080000 0.000000 
 0.880000 0.080000 0.000000 
 0.900000 0.080000 0.000000 
 0.920000 0.080000 0.000000 
 0.940000 0.080000 0.000000 
 0.960000 0.080000 0.000000 
 0.980000 0.080000 0.000000 
 1.000000 0.080000 0.000000 
 0.000000 0.100000 0.000000 
 0.020000 0.100000 0.000000 
 0.040000 0.100000 0.000000 
 0.060000 0.100000 0.000000 
 0.080000 0.100000 0.000000 
 0.100000 0.100000 0.000000 
 0.120000 0.100000 0.000000 
 0.140000 0.100000 0.000000 
 0.160000 0.100000 0.000000 
 0.180000 0.100000 0.000000 
 0.200000 0.100000 0.000000 
 0.220000 0.100000 0.000000 
 0.240000 0.100000 0.000000 
 0.260000 0.100000 0.000000 
 0.280000 0.100000 0.000000 
 0.300000 0.100000 0.000000 
 0.320000 0.100000 0.000000 
 0.340000 0.100000 0.000000 
 0.360000 0.100000 0.000000 
 0.380000 0.100000 0.000000 
 0.400000 0.100000 0.000000 
 0.420000 0.100000 0.000000 
 0.440000 0.100000 0.000000 
 0.460000 0.100000 0.000000 
 0.480000 0.100000 0.000000 
 0.500000 0.100000 0.000000 
 0.520000 0.100000 0.000000 
 0.540000 0.100000 0.000000 
 0.560000 0.100000 0.000000 
 0.580000 0.100000 0.000000 
 0.600000 0.100000 0.000000 
 0.620000 0.100000 0.000000 
 0.640000 0.100000 0.000000 
 0.660000 0.100000 0.000000 
 0.680000 0.100000 0.000000 
 0.700000 0.100000 0.000000 
 0.720000 0.100000 0.000000 
 0.740000 0.100000 0.000000 
 0.760000 0.100000 0.000000 
 0.780000 0.100000 0.000000 
 0.800000 0.100000 0.000000 
 0.820000 0.100000 0.000000 
 0.840000 0.100000 0.000000 
 0.860000 0.100000 0.000000 
 0.880000 0.100000 0.000000 
 0.900000 0.100000 0.000000 
 0.920000 0.100000 0.000000 
 0.940000 0.100000 0.000000 
 0.960000 0.100000 0.000000 
 0.980000 0.100000 0.000000 
 1.000000 0.100000 0.000000 
 0.000000 0.120000 0.000000 
 0.020000 0.120000 0.000000 
 0.040000 0.120000 0.000000 
 0.060000 0.120000 0.000000 
 0.080000 0.120000 0.000000 
 0.100000 0.120000 0.000000 
 0.120000 0.120000 0.000000 
 0.140000 0.120000 0.000000 
 0.160000 0.120000 0.000000 
 0.180000 0.120000 0.000000 
 0.200000 0.120000 0.000000 
 0.220000 0.120000 0.000000 
 0.240000 0.120000 0.000000 
 0.260000 0.120000 0.000000 
 0.280000 0.120000 0.000000 
 0.300000 0.120000 0.000000 
 0.320000 0.120000 0.000000 
 0.340000 0.120000 0.000000 
 0.360000 0.120000 0.000000 
 0.380000 0.120000 0.000000 
 0.400000 0.120000 0.000000 
 0.420000 0.120000 0.000000 
 0.440000 0.120000 0.000000 
 0.460000 0.120000 0.000000 
 0.480000 0.120000 0.000000 
 0.500000 0.120000 0.000000 
 0.520000 0.120000 0.000000 
 0.540000 0.120000 0.000000 
 0.560000 0.120000 0.000000 
 0.580000 0.120000 0.000000 
 0.600000 0.120000 0.000000 
[...]
<PointData  Scalars="U"> 
<DataArray  type="Float64"  Name="U"  format="ascii"> 
 0.000000e+00
 0.000000e+00
 0.000000e+00
 0.000000e+00
 0.000000e+00
 0.000000e+00
 0.000000e+00
 0.000000e+00
 0.000000e+00
 0.000000e+00
 0.000000e+00
 0.000000e+00
 0.000000e+00
 0.000000e+00
 0.000000e+00
 0.000000e+00
 0.000000e+00
 0.000000e+00
 0.000000e+00
 0.000000e+00
 0.000000e+00
 0.000000e+00
 0.000000e+00
 0.000000e+00
 0.000000e+00
 0.000000e+00
 0.000000e+00
 0.000000e+00
 0.000000e+00
 0.000000e+00
 0.000000e+00
 0.000000e+00
 0.000000e+00
 0.000000e+00
 0.000000e+00
 0.000000e+00
 0.000000e+00
 0.000000e+00
 0.000000e+00
 0.000000e+00
 0.000000e+00
 0.000000e+00
 0.000000e+00
 0.000000e+00
 0.000000e+00
 0.000000e+00
 0.000000e+00
 0.000000e+00
 0.000000e+00
 0.000000e+00
 0.000000e+00
 0.000000e+00
 4.612155e-09
 1.222402e-08
 2.313180e-08
 3.475944e-08
 4.422359e-08
 5.016624e-08
 4.987444e-08
 2.563692e-08
 -1.132094e-07
 -1.203887e-06
 1.158581e-08
 8.254338e-07
 1.643350e-07
 7.136782e-09
 -7.664677e-08
 -2.279938e-07
 -3.794545e-07
 -1.824551e-07
 2.623017e-07
 3.721168e-07
 7.221829e-08
 -1.151926e-06
 3.001320e-10
 7.809700e-07
 1.139761e-07
 4.080093e-08
 2.186492e-07
 2.906088e-07
 1.747641e-05
 -2.456436e-07
 -1.817430e-07
 -1.259900e-07
 -1.173332e-07
 -1.565501e-07
 -2.239688e-07
 -2.492545e-07
 -1.399444e-07
 5.708444e-08
 1.735330e-07
 1.594234e-07
 9.364726e-08
 3.479775e-08
 -4.447240e-09
 -2.685124e-08
 -3.593131e-08
 -3.430514e-08
 -2.558178e-08
 -1.477067e-08
 -5.653321e-09
 0.000000e+00
 0.000000e+00
 5.693140e-09
 2.057446e-08
 4.551358e-08
 7.207350e-08
 9.195957e-08
 1.048574e-07
 1.155435e-07
 1.272447e-07
 1.415558e-07
 8.867669e-08
 1.749917e-05
 -6.477619e-09
 -1.596607e-09
 -3.071804e-08
 -8.354855e-08
 -2.845952e-07
 -1.513541e-06
 -1.275202e-06
 9.338603e-07
 1.193816e-06
 3.951310e-07
 1.225957e-07
 1.745256e-05
 -1.096798e-07
 -1.848794e-07
 -1.583653e-07
 3.038585e-07
 1.156942e-06
 1.003173e-07
 -1.376576e-06
 -3.522108e-07
 -1.962408e-07
 -1.863214e-07
 -2.749781e-07
 -4.795602e-07
 -6.629398e-07
 -3.981175e-07
 2.252011e-07
 5.046473e-07
 3.608385e-07
 1.717460e-07
 4.823817e-08
 -2.554362e-08
 -6.679454e-08
 -8.278881e-08
 -7.605085e-08
 -5.305815e-08
 -2.704893e-08
 -9.219091e-09
 0.000000e+00
 0.000000e+00
 -4.005989e-09
 1.691628e-08
 6.636311e-08
 1.178003e-07
 1.476200e-07
 1.613674e-07
 1.792822e-07
 2.286654e-07
 3.833404e-07
 1.003157e-06
 6.518516e-08
 -1.277273e-06
 -2.202418e-07
 -4.815285e-08
 2.283769e-08
 7.452809e-08
 7.691335e-08
 1.751446e-05
 1.752690e-05
 1.418164e-07
 3.098667e-07
 9.132922e-07
 -3.336970e-08
 -1.410504e-06
 -4.937603e-07
 -1.350870e-06
 9.152313e-08
 1.028299e-06
 1.266014e-07
 -2.670872e-07
 -2.276274e-07
 -1.434114e-07
 -1.663774e-07
 -2.807578e-07
 -5.791246e-07
 -1.940596e-06
 -1.712314e-06
 8.304028e-07
 1.373346e-06
 5.143618e-07
 1.755292e-07
 1.332410e-08
 -7.726263e-08
 -1.310782e-07
 -1.532022e-07
 -1.356259e-07
 -8.318966e-08
 -2.897643e-08
 -2.456431e-09
 0.000000e+00
 0.000000e+00
 -4.226048e-08
 -2.209000e-08
 8.601314e-08
 1.917310e-07
 2.213687e-07
 2.137548e-07
 2.164191e-07
 2.518052e-07
 3.330989e-07
 3.731756e-07
 1.144678e-07
 -1.764042e-07
 -1.390859e-07
 6.533268e-09
 1.475293e-07
 4.041098e-07
 1.229726e-06
 9.732687e-07
 -1.235076e-06
 -1.440746e-06
 -1.169404e-07
 1.551392e-07
 -1.516904e-08
 -2.628366e-07
 -1.973362e-07
 -1.032983e-07
 1.738322e-05
 -1.895066e-07
 -2.969871e-07
 -1.503342e-07
 5.221508e-08
 1.258092e-08
 -7.125281e-08
 -1.419357e-07
 -2.283586e-07
 -4.522160e-07
 1.592050e-05
 1.732826e-05
 8.897201e-07
 2.627584e-07
 3.123400e-08
 -8.391494e-08
 -1.613135e-07
 -2.243367e-07
 -2.655332e-07
 -2.367579e-07
 -1.143360e-07
 4.050445e-09
 3.166299e-08
 0.000000e+00
 0.000000e+00
 -1.447651e-07
 -1.786815e-07
 1.126584e-07
 3.695777e-07
 3.289394e-07
 2.504481e-07
 2.208413e-07
 2.251679e-07
 2.392342e-07
 2.147663e-07
 1.137928e-07
 1.237722e-08
 4.569417e-09
 7.350491e-08
 1.883181e-07
 3.635108e-07
 5.329485e-07
 3.597314e-07
 -1.467493e-07
 -3.682217e-07
 -1.912611e-07
 -2.435581e-08
 -9.759495e-09
 -1.184031e-08
 1.528875e-07
 8.211889e-07
 -1.080867e-07
 -1.596769e-06
 -1.637883e-06
 -1.996946e-07
 7.451071e-07
 1.355891e-07
 7.955962e-09
 1.462869e-08
 1.617935e-07
 8.521507e-07
 5.038733e-07
 1.599762e-05
 -1.486005e-06
 -2.947512e-07
 -2.032938e-07
 -2.125701e-07
 -2.559697e-07
 -3.300094e-07
 -4.485621e-07
 -4.625142e-07
 -1.381673e-07
 1.566547e-07
 1.248014e-07
 0.000000e+00
 0.000000e+00
 -1.865624e-07
 -1.243195e-06
 9.207834e-08
 1.017437e-06
 3.890312e-07
 2.341620e-07
 1.913532e-07
 1.835501e-07
 1.807640e-07
 1.609657e-07
 1.183211e-07
 7.838891e-08
 7.245388e-08
 1.058698e-07
 1.680386e-07
 2.395137e-07
 2.653624e-07
 1.687553e-07
 -1.161119e-08
 -1.155535e-07
 -9.023271e-08
 -2.505946e-08
 1.898968e-08
 6.706895e-08
 1.672681e-07
 2.396929e-07
 1.251291e-08
 -2.558933e-07
 -2.686518e-07
 1.728648e-05
 -1.206329e-07
 -4.982942e-08
 -1.180467e-08
 6.966205e-08
 2.140866e-07
 3.503304e-07
 -2.850041e-07
 -4.232983e-07
 -1.097506e-06
 -5.348060e-07
 -3.730862e-07
 -3.132200e-07
 -3.226417e-07
 -3.917844e-07
 -5.680874e-07
 -1.613786e-06
 -2.199010e-07
 8.102007e-07
 2.321263e-07
 0.000000e+00
 0.000000e+00
 6.428189e-08
 7.547842e-08
 1.756135e-05
 1.155398e-07
 1.475569e-07
 1.326761e-07
 1.318679e-07
 1.370873e-07
 1.415682e-07
 1.369860e-07
 1.213697e-07
 1.042239e-07
 9.854204e-08
 1.094907e-07
 1.320152e-07
 1.513976e-07
 1.437551e-07
 9.271844e-08
 2.034634e-08
 -2.364742e-08
 -1.855299e-08
 1.327890e-08
 4.766422e-08
 8.305386e-08
 1.207014e-07
 1.315567e-07
 9.824967e-08
 1.650979e-07
 7.810959e-07
 -1.035529e-07
 -1.388501e-06
 -2.847120e-07
 -6.824211e-08
 6.021480e-08
 1.832318e-07
 2.946674e-07
 1.874397e-07
 1.718210e-05
 -6.934435e-07
 -6.182192e-07
 -4.457928e-07
 -3.477339e-07
 -3.352166e-07
 -3.777582e-07
 -4.019522e-07
 -4.337937e-07
 1.711681e-05
 -2.526646e-08
 1.927826e-07
 0.000000e+00
 0.000000e+00
 2.852143e-07
 9.989781e-07
 1.265279e-07
 -1.184804e-06
 -1.296509e-07
 2.062542e-08
 6.593967e-08
 9.079526e-08
 1.125624e-07
 1.264549e-07
 1.266384e-07
 1.169072e-07
 1.062329e-07
 1.000693e-07
 9.710335e-08
 9.072959e-08
 7.339374e-08
 4.461452e-08
 1.733884e-08
 9.915731e-09
 2.693430e-08
 5.430508e-08
 7.645923e-08
 8.984329e-08
 9.724859e-08
 1.009138e-07
 1.158737e-07
 1.801150e-07
 2.279528e-07
 -5.504803e-09
 -2.706926e-07
 -2.161389e-07
 -6.693103e-08
 4.439564e-08
 1.527556e-07
 3.133500e-07
 8.407685e-07
 -2.883866e-07
 -1.778812e-06
 -7.059645e-07
 -4.282861e-07
 -2.925629e-07
 -2.834942e-07
 -3.802532e-07
 -3.441152e-07
 4.084641e-07
 -1.248583e-06
 -1.225151e-06
 6.524573e-07
 0.000000e+00
 0.000000e+00
 2.428316e-07
 4.044406e-07
 2.111244e-07
 -7.814303e-08
 -8.653881e-08
 -1.711521e-08
 1.222387e-08
 4.409550e-08
 9.150596e-08
 1.317819e-07
 1.427798e-07
 1.297291e-07
 1.081562e-07
 8.651479e-08
 6.530587e-08
 4.218402e-08
 1.720078e-08
 -3.625353e-09
 -8.314405e-09
 1.508244e-08
 6.200300e-08
 1.032888e-07
 1.151425e-07
 1.017429e-07
 7.933937e-08
 6.542677e-08
 7.956302e-08
 1.200269e-07
 1.275867e-07
 4.431314e-08
 -5.569293e-08
 -7.321636e-08
 -2.813466e-08
 3.157313e-08
 9.060782e-08
 1.423158e-07
 8.369172e-08
 -3.214267e-07
 -7.026089e-07
 -5.904216e-07
 -2.811542e-07
 -1.074493e-07
 -1.212414e-07
 -3.198454e-07
 -1.445801e-06
 -1.394031e-07
 7.304742e-07
 1.750440e-05
 -7.512879e-08
 0.000000e+00
 0.000000e+00
 1.897243e-07
 3.401367e-07
 3.150616e-07
 1.632954e-07
 4.622690e-08
 -1.516376e-08
 -4.940662e-08
 -2.583297e-08
 7.804604e-08
 1.727588e-07
 1.843927e-07
 1.493067e-07
 1.087176e-07
 7.206395e-08
 3.586048e-08
 -3.395985e-09
 -4.203814e-08
 -6.758958e-08
 -6.484677e-08
 -9.025419e-09
 1.039068e-07
 1.880150e-07
 1.806139e-07
 1.222663e-07
 5.417076e-08
 -5.921490e-10
 4.345956e-09
 8.813036e-08
 1.507850e-07
 1.166817e-07
 4.593479e-08
 5.747397e-09
 4.238120e-09
 2.064723e-08
 3.133571e-08
 1.842277e-09
 -1.365105e-07
 -4.535604e-07
 -7.438558e-07
 -5.328678e-07
 3.290396e-08
 2.813232e-07
 1.844314e-07
 7.209516e-08
 -1.195933e-07
 1.634216e-05
 6.163711e-07
 4.861961e-07
 -1.264431e-06
 0.000000e+00
 0.000000e+00
 1.394957e-07
 5.001900e-07
 5.716166e-07
 3.300526e-07
 1.169135e-07
 -2.428175e-08
 -1.675671e-07
 -2.054712e-07
 7.812315e-08
 3.242952e-07
 2.687034e-07
 1.678530e-07
 1.037257e-07
 5.724434e-08
 1.074247e-08
 -4.759872e-08
 -1.147994e-07
 -1.573860e-07
 -1.742936e-07
 -1.141143e-07
 1.799839e-07
 3.899736e-07
 2.920382e-07
 1.474247e-07
 2.299664e-08
 -1.272197e-07
 -1.806370e-07
 8.282828e-08
 3.041498e-07
 2.223380e-07
 1.041069e-07
 4.188853e-08
 1.928830e-08
 1.432404e-08
 5.299086e-09
 -3.508439e-08
 -1.509799e-07
 -4.399887e-07
 -1.734185e-06
 -1.499057e-06
 7.623110e-07
 1.103225e-06
 4.141062e-07
 4.275647e-07
 1.071277e-06
 1.475559e-07
 1.613422e-05
 -1.624005e-06
 -4.949895e-07
 0.000000e+00
 0.000000e+00
 -9.645749e-07
 1.048420e-06
 1.231581e-06
 3.729401e-07
 1.091189e-07
 -2.726791e-08
 -2.192334e-07
 -1.289505e-06
 3.362964e-08
 9.497103e-07
 3.126528e-07
 1.455169e-07
 8.228585e-08
 4.322384e-08
 -1.001083e-09
 -7.506244e-08
 -2.147341e-07
 -3.029127e-07
 -1.877188e-07
 -1.010082e-06
 2.533731e-07
 1.064881e-06
 3.619059e-07
 1.459300e-07
 1.887882e-08
 -1.806894e-07
 -1.266102e-06
 3.833559e-08
 9.342886e-07
 2.788887e-07
 1.004435e-07
 3.840136e-08
 1.697832e-08
 1.125402e-08
 7.974119e-09
 -1.959742e-09
 -2.129401e-08
 -3.440977e-08
 -7.224040e-08
 1.735771e-05
 1.739021e-05
 3.094513e-08
 1.688729e-07
 3.613867e-07
 6.421218e-07
 1.092635e-06
 -8.228899e-08
 -1.467129e-06
 1.711706e-05
 0.000000e+00
 0.000000e+00
 1.742094e-05
 1.743956e-05
 9.320318e-09
 1.929990e-08
 7.424441e-10
 3.994736e-09
 2.615886e-08
 7.148273e-09
 1.747556e-05
 2.439650e-08
 5.858802e-08
 4.643749e-08
 4.240437e-08
 3.469886e-08
 1.469238e-08
 -3.875117e-08
 -2.035440e-07
 -1.265672e-06
 6.975997e-08
 9.529079e-07
 1.777179e-05
 1.457317e-07
 1.165326e-07
 7.746095e-08
 6.435061e-08
 6.955935e-08
 3.236957e-08
 1.748194e-05
 1.235213e-08
 3.043016e-08
 7.163482e-09
 -2.933206e-11
 3.446042e-10
 6.230090e-09
 1.812206e-08
 4.315096e-08
 1.093771e-07
 3.179310e-07
 1.116627e-06
 8.533544e-07
 -1.346371e-06
 -1.538414e-06
 -2.067036e-07
 1.528124e-07
 3.835669e-07
 4.790401e-07
 3.512586e-07
 7.410226e-07
 5.980587e-08
 0.000000e+00
 0.000000e+00
 5.298821e-07
 -1.482419e-06
 -1.657428e-06
 -3.845792e-07
 -1.243016e-07
 2.130802e-08
 2.305451e-07
 8.954899e-07
 5.386422e-10
 -1.307331e-06
 -2.316713e-07
 -5.673142e-08
 6.370873e-09
 3.690587e-08
 5.741565e-08
 7.933131e-08
 1.216271e-07
 1.512186e-07
 1.777596e-05
 9.550511e-07
 7.045853e-08
 -1.263914e-06
 -1.949336e-07
 -1.023713e-08
 9.706352e-08
 2.801583e-07
 9.232577e-07
 8.309177e-09
 -1.318149e-06
 -2.591872e-07
 -9.818115e-08
 -4.548570e-08
 -2.152225e-08
 -3.904898e-09
 1.790848e-08
 5.599722e-08
 1.322839e-07
 2.796278e-07
 4.349805e-07
 2.601884e-07
 -2.384596e-07
 -4.430087e-07
 -2.283527e-07
 3.026454e-08
 1.995485e-07
 2.929600e-07
 3.397379e-07
 3.633257e-07
 2.169023e-07
 0.000000e+00
 0.000000e+00
 -4.320468e-08
 -4.231828e-07
 -5.907436e-07
 -3.905605e-07
 -1.656078e-07
 -6.219705e-09
 1.487929e-07
 2.389794e-07
 1.710600e-08
 -2.497220e-07
 -2.053704e-07
 -7.782624e-08
 -3.493774e-09
 4.776713e-08
 9.950440e-08
 1.828624e-07
 3.833574e-07
 1.079317e-06
 2.631883e-07
 -1.004144e-06
 -1.844642e-07
 -2.991817e-07
 -2.037690e-07
 -4.379939e-08
 7.497709e-08
 2.010541e-07
 2.677291e-07
 2.500520e-08
 -2.611402e-07
 -2.350296e-07
 -1.250667e-07
 -6.868978e-08
 -3.846539e-08
 -1.791055e-08
 3.077699e-09
 3.353077e-08
 8.187094e-08
 1.435729e-07
 1.696070e-07
 8.054945e-08
 -9.112780e-08
 -1.834046e-07
 -1.281145e-07
 -7.798303e-09
 9.170223e-08
 1.729414e-07
 2.676002e-07
 3.011751e-07
 1.924973e-07
 0.000000e+00
 0.000000e+00
 -1.003761e-07
 -2.403013e-07
 -3.090614e-07
 -2.533071e-07
 -1.434672e-07
 -3.738175e-08
 4.438413e-08
 6.568555e-08
 -4.176065e-09
 -8.753830e-08
 -9.326392e-08
 -4.587332e-08
 7.915052e-09
 5.891614e-08
 1.163104e-07
 1.975123e-07
 3.230735e-07
 4.115663e-07
 1.950138e-07
 -1.053385e-07
 -1.713944e-07
 -1.580363e-07
 -1.136978e-07
 -3.674369e-08
 3.867104e-08
 9.440713e-08
 9.300398e-08
 2.422846e-09
 -1.006251e-07
 -1.258208e-07
 -9.877652e-08
 -6.813140e-08
 -4.671908e-08
 -3.241912e-08
 -2.103127e-08
 -8.108959e-09
 1.010677e-08
 3.192527e-08
 4.196330e-08
 1.613468e-08
 -4.670446e-08
 -1.037937e-07
 -9.039538e-08
 -5.948027e-09
 1.161647e-08
 1.153552e-08
 2.527342e-07
 4.178287e-07
 2.491204e-07
 0.000000e+00
 0.000000e+00
 -7.600754e-08
 -1.462844e-07
 -1.804522e-07
 -1.619838e-07
 -1.090463e-07
 -4.920750e-08
 -3.732971e-09
 1.067565e-08
 -7.907641e-09
 -3.283680e-08
 -3.459896e-08
 -1.136947e-08
 2.417501e-08
 6.483341e-08
 1.108331e-07
 1.636820e-07
 2.128373e-07
 2.145155e-07
 1.242647e-07
 2.530328e-09
 -6.444928e-08
 -7.793943e-08
 -5.919033e-08
 -2.207777e-08
 1.672409e-08
 4.078539e-08
 3.465423e-08
 -3.618166e-09
 -4.784990e-08
 -6.930694e-08
 -6.740618e-08
 -5.680406e-08
 -4.773192e-08
 -4.398586e-08
 -4.667583e-08
 -5.575488e-08
 -6.785754e-08
 -7.053233e-08
 -4.555766e-08
 -2.761508e-09
 -2.415019e-09
 -1.036652e-07
 -1.575391e-07
 6.854171e-08
 1.471328e-07
 -9.790456e-07
 2.246221e-07
 1.039934e-06
 2.999987e-07
 0.000000e+00
 0.000000e+00
 -5.038219e-08
 -9.167897e-08
 -1.121073e-07
 -1.060094e-07
 -7.978049e-08
 -4.647240e-08
 -1.875261e-08
 -4.889510e-09
 -4.564186e-09
 -7.804927e-09
 -3.332598e-09
 1.244842e-08
 3.668752e-08
 6.574283e-08
 9.708685e-08
 1.268396e-07
 1.450812e-07
 1.354187e-07
 9.079322e-08
 3.223712e-08
 -1.066223e-08
 -2.798496e-08
 -2.439079e-08
 -8.618520e-09
 9.175998e-09
 1.921822e-08
 1.484209e-08
 -3.016791e-09
 -2.442586e-08
 -3.867895e-08
 -4.328822e-08
 -4.278948e-08
 -4.306151e-08
 -4.901643e-08
 -6.553201e-08
 -9.875609e-08
 -1.530474e-07
 -2.052995e-07
 -1.625115e-07
 2.145452e-08
 1.535564e-07
 1.620333e-08
 -1.099582e-06
 1.764945e-07
 1.075301e-06
 3.882525e-07
 1.765993e-05
 1.139422e-07
 7.799619e-08
 0.000000e+00
 0.000000e+00
 -3.287770e-08
 -5.910273e-08
 -7.273578e-08
 -7.126887e-08
 -5.739169e-08
 -3.747038e-08
 -1.843321e-08
 -4.937611e-09
 2.598663e-09
 7.828715e-09
 1.542889e-08
 2.783189e-08
 4.469413e-08
 6.421305e-08
 8.387112e-08
 9.986194e-08
 1.064019e-07
 9.757525e-08
 7.300979e-08
 4.152187e-08
 1.518439e-08
 6.935034e-10
 -2.048113e-09
 2.875488e-09
 9.812258e-09
 1.339266e-08
 1.038925e-08
 1.302322e-09
 -9.930931e-09
 -1.898825e-08
 -2.435486e-08
 -2.774727e-08
 -3.269232e-08
 -4.377247e-08
 -6.782121e-08
 -1.180487e-07
 -2.232351e-07
 -4.360198e-07
 -4.808959e-07
 1.002785e-07
 6.037116e-07
 5.214578e-07
 3.265754e-07
 1.774175e-05
 4.030022e-07
 1.048582e-06
 1.045500e-07
 -1.236310e-06
 -1.831993e-07
 0.000000e+00
 0.000000e+00
 -2.205297e-08
 -3.972337e-08
 -4.944895e-08
 -4.959260e-08
 -4.112286e-08
 -2.718897e-08
 -1.180650e-08
 1.755067e-09
 1.224704e-08
 2.061680e-08
 2.886634e-08
 3.854017e-08
 4.997019e-08
 6.234048e-08
 7.392214e-08
 8.216370e-08
 8.404319e-08
 7.736984e-08
 6.278628e-08
 4.446370e-08
 2.794014e-08
 1.699880e-08
 1.238249e-08
 1.239967e-08
 1.416090e-08
 1.482560e-08
 1.269282e-08
 7.838379e-09
 1.817761e-09
 -3.585144e-09
 -7.669092e-09
 -1.127231e-08
 -1.649072e-08
 -2.648028e-08
 -4.632421e-08
 -8.746187e-08
 -1.869730e-07
 -4.968292e-07
 -2.592825e-06
 9.373544e-08
 1.988661e-06
 8.870248e-07
 1.219126e-06
 2.541041e-07
 -1.000510e-06
 1.140227e-07
 3.094186e-08
 -2.044648e-07
 -1.517184e-07
 0.000000e+00
 0.000000e+00
 -1.573263e-08
 -2.862196e-08
 -3.621484e-08
 -3.691913e-08
 -3.047046e-08
 -1.822398e-08
 -2.989173e-09
 1.192713e-08
 2.420484e-08
 3.342109e-08
 4.065079e-08
 4.729853e-08
 5.416174e-08
 6.111421e-08
 6.720426e-08
 7.093534e-08
 7.074623e-08
 6.576457e-08
 5.656164e-08
 4.524408e-08
 3.454864e-08
 2.656120e-08
 2.198176e-08
 2.019120e-08
 1.980709e-08
 1.938026e-08
 1.799692e-08
 1.558062e-08
 1.273823e-08
 1.021840e-08
 8.329404e-09
 6.666943e-09
 4.232040e-09
 -1.100147e-10
 -6.534468e-09
 -1.136176e-08
 -8.161755e-10
 5.934051e-08
 6.094107e-08
 3.504542e-05
 1.914844e-07
 3.355703e-07
 3.594632e-07
 1.417420e-07
 -8.206890e-08
 -3.184063e-08
 -3.913795e-10
 -4.979325e-08
 -4.940219e-08
 0.000000e+00
 0.000000e+00
 -1.231727e-08
 -2.296040e-08
 -3.009503e-08
 -3.168021e-08
 -2.588329e-08
 -1.235040e-08
 6.329014e-09
 2.509820e-08
 3.949730e-08
 4.825644e-08
 5.289561e-08
 5.567619e-08
 5.812294e-08
 6.065449e-08
 6.282512e-08
 6.373933e-08
 6.250230e-08
 5.867003e-08
 5.256877e-08
 4.527437e-08
 3.819295e-08
 3.248246e-08
 2.866171e-08
 2.656781e-08
 2.559363e-08
 2.504476e-08
 2.446027e-08
 2.377376e-08
 2.325244e-08
 2.326064e-08
 2.399434e-08
 2.534256e-08
 2.697759e-08
 2.887562e-08
 3.326539e-08
 5.249956e-08
 1.420483e-07
 5.032517e-07
 1.891704e-06
 1.707751e-07
 -2.446890e-06
 -3.462246e-07
 -8.314892e-08
 -5.879896e-08
 -2.475812e-08
 4.409254e-08
 5.489355e-08
 2.171588e-08
 1.879431e-10
 0.000000e+00
 0.000000e+00
 -1.054751e-08
 -2.076136e-08
 -2.953060e-08
 -3.405382e-08
 -2.958329e-08
 -1.213143e-08
 1.567365e-08
 4.327947e-08
 6.094304e-08
 6.730833e-08
 6.684075e-08
 6.418754e-08
 6.185213e-08
 6.048019e-08
 5.970188e-08
 5.877273e-08
 5.699220e-08
 5.398224e-08
 4.982909e-08
 4.504398e-08
 4.034893e-08
 3.639223e-08
 3.353755e-08
 3.181128e-08
 3.099849e-08
 3.081732e-08
 3.108670e-08
 3.181872e-08
 3.320514e-08
 3.552002e-08
 3.899928e-08
 4.375382e-08
 4.971966e-08
 5.656156e-08
 6.331709e-08
 6.758689e-08
 6.786962e-08
 2.341814e-07
 6.279423e-07
 3.768315e-07
 -2.664585e-07
 -3.605952e-07
 -3.220591e-07
 -3.092178e-07
 -2.978333e-08
 2.103887e-07
 1.593604e-07
 7.000628e-08
 2.357277e-08
 0.000000e+00
 0.000000e+00
 -8.989444e-09
 -1.971748e-08
 -3.280150e-08
 -4.540706e-08
 -4.749198e-08
 -2.398602e-08
 2.540192e-08
 7.319524e-08
 9.472070e-08
 9.308775e-08
 8.254105e-08
 7.206443e-08
 6.445720e-08
 5.965607e-08
 5.674019e-08
 5.471481e-08
 5.279420e-08
 5.051390e-08
 4.775866e-08
 4.470885e-08
 4.171423e-08
 3.913936e-08
 3.724252e-08
 3.613037e-08
 3.579083e-08
 3.617471e-08
 3.728298e-08
 3.922362e-08
 4.222185e-08
 4.659273e-08
 5.270053e-08
 6.091491e-08
 7.149827e-08
 8.409512e-08
 9.545991e-08
 8.937646e-08
 -1.128682e-08
 -1.017854e-06
 2.696575e-07
 9.798424e-07
 1.070861e-07
 -1.726259e-07
 -3.594783e-07
 -1.413771e-06
 -8.598605e-08
 8.377707e-07
 2.178626e-07
 7.102520e-08
 2.448434e-08
 0.000000e+00
 0.000000e+00
 -5.537967e-09
 -1.581571e-08
 -3.526141e-08
 -6.573288e-08
 -9.344527e-08
 -6.823487e-08
 3.745998e-08
 1.357538e-07
 1.532046e-07
 1.263498e-07
 9.708724e-08
 7.665475e-08
 6.414624e-08
 5.694610e-08
 5.292651e-08
 5.060770e-08
 4.901640e-08
 4.757201e-08
 4.601191e-08
 4.431996e-08
 4.263977e-08
 4.118083e-08
 4.014164e-08
 3.967051e-08
 3.986908e-08
 4.082697e-08
 4.266754e-08
 4.558623e-08
 4.987390e-08
 5.593044e-08
 6.428498e-08
 7.563861e-08
 9.092946e-08
 1.113749e-07
 1.383578e-07
 1.730892e-07
 2.185879e-07
 2.008202e-07
 1.762169e-05
 6.814939e-08
 -6.562055e-09
 -7.944703e-08
 -8.770016e-08
 -1.223479e-07
 1.733890e-05
 -9.769375e-08
 -2.468683e-08
 6.726737e-10
 1.015401e-08
 0.000000e+00
 0.000000e+00
 2.675744e-09
 -2.524239e-09
 -2.503460e-08
 -8.004061e-08
 -1.927121e-07
 -2.227843e-07
 6.112724e-08
 3.065822e-07
 2.520584e-07
 1.556959e-07
 1.013732e-07
 7.322149e-08
 5.864587e-08
 5.116717e-08
 4.749470e-08
 4.583735e-08
 4.514468e-08
 4.478750e-08
 4.442389e-08
 4.392981e-08
 4.334109e-08
 4.279291e-08
 4.246400e-08
 4.253866e-08
 4.319386e-08
 4.460909e-08
 4.699017e-08
 5.059789e-08
 5.577791e-08
 6.299798e-08
 7.291007e-08
 8.647543e-08
 1.052442e-07
 1.320801e-07
 1.734455e-07
 2.481257e-07
 4.263754e-07
 1.062783e-06
 1.241438e-07
 -1.241960e-06
 -2.166249e-07
 -4.648505e-08
 1.335691e-07
 7.563624e-07
 -1.769125e-07
 -1.470508e-06
 -3.014282e-07
 -4.301105e-08
 1.860949e-08
 0.000000e+00
 0.000000e+00
 1.858576e-08
 2.723638e-08
 1.548157e-08
 -3.700108e-08
 -2.056644e-07
 -1.275535e-06
 4.071646e-08
 9.493304e-07
 3.071834e-07