<VTKFile type="UnstructuredGrid"  version="0.1"   >
<UnstructuredGrid>  
<Piece  NumberOfPoints="     2601"  NumberOfCells="     5000">  
<Points>  
<DataArray  type="Float64"  NumberOfComponents="3"  format="ascii">  
 0.000000 0.000000 0.000000 
 0.020000 0.000000 0.000000 
 0.040000 0.000000 0.000000 
 0.060000 0.000000 0.000000 
 0.080000 0.000000 0.000000 
 0.100000 0.000000 0.000000 
 0.120000 0.000000 0.000000 
 0.140000 0.000000 0.000000 
 0.160000 0.000000 0.000000 
 0.180000 0.000000 0.000000 
 0.200000 0.000000 0.000000 
 0.220000 0.000000 0.000000 
 0.240000 0.000000 0.000000 
 0.260000 0.000000 0.000000 
 0.280000 0.000000 0.000000 
 0.300000 0.000000 0.000000 
 0.320000 0.000000 0.000000 
 0.340000 0.000000 0.000000 
 0.360000 0.000000 0.000000 
 0.380000 0.000000 0.000000 
 0.400000 0.000000 0.000000 
 0.420000 0.000000 0.000000 
 0.440000 0.000000 0.000000 
 0.460000 0.000000 0.000000 
 0.480000 0.000000 0.000000 
 0.500000 0.000000 0.000000 
 0.520000 0.000000 0.000000 
 0.540000 0.000000 0.000000 
 0.560000 0.000000 0.000000 
 0.580000 0.000000 0.000000 
 0.600000 0.000000 0.000000 
 0.620000 0.000000 0.000000 
 0.640000 0.000000 0.000000 
 0.660000 0.000000 0.000000 
 0.680000 0.000000 0.000000 
 0.700000 0.000000 0.000000 
 0.720000 0.000000 0.000000 
 0.740000 0.000000 0.000000 
 0.760000 0.000000 0.000000 
 0.780000 0.000000 0.000000 
 0.800000 0.000000 0.000000 
 0.820000 0.000000 0.000000 
 0.840000 0.000000 0.000000 
 0.860000 0.000000 0.000000 
 0.880000 0.000000 0.000000 
 0.900000 0.000000 0.000000 
 0.920000 0.000000 0.000000 
 0.940000 0.000000 0.000000 
 0.960000 0.000000 0.000000 
 0.980000 0.000000 0.000000 
 1.000000 0.000000 0.000000 
 0.000000 0.020000 0.000000 
 0.020000 0.020000 0.000000 
 0.040000 0.020000 0.000000 
 0.060000 0.020000 0.000000 
 0.080000 0.020000 0.000000 
 0.100000 0.020000 0.000000 
 0.120000 0.020000 0.000000 
 0.140000 0.020000 0.000000 
 0.160000 0.020000 0.000000 
 0.180000 0.020000 0.000000 
 0.200000 0.020000 0.000000 
 0.220000 0.020000 0.000000 
 0.240000 0.020000 0.000000 
 0.260000 0.020000 0.000000 
 0.280000 0.020000 0.000000 
 0.300000 0.020000 0.000000 
 0.320000 0.020000 0.000000 
 0.340000 0.020000 0.000000 
 0.360000 0.020000 0.000000 
 0.380000 0.020000 0.000000 
 0.400000 0.020000 0.000000 
 0.420000 0.020000 0.000000 
 0.440000 0.020000 0.000000 
 0.460000 0.020000 0.000000 
 0.480000 0.020000 0.000000 
 0.500000 0.020000 0.000000 
 0.520000 0.020000 0.000000 
 0.540000 0.020000 0.000000 
 0.560000 0.020000 0.000000 
 0.580000 0.020000 0.000000 
 0.600000 0.020000 0.000000 
 0.620000 0.020000 0.000000 
 0.640000 0.020000 0.000000 
 0.660000 0.020000 0.000000 
 0.680000 0.020000 0.000000 
 0.700000 0.020000 0.000000 
 0.720000 0.020000 0.000000 
 0.740000 0.020000 0.000000 
 0.760000 0.020000 0.000000 
 0.780000 0.020000 0.000000 
 0.800000 0.020000 0.000000 
 0.820000 0.020000 0.000000 
 0.840000 0.020000 0.000000 
 0.860000 0.020000 0.000000 
 0.880000 0.020000 0.000000 
 0.900000 0.020000 0.000000 
 0.920000 0.020000 0.000000 
 0.940000 0.020000 0.000000 
 0.960000 0.020000 0.000000 
 0.980000 0.020000 0.000000 
 1.000000 0.020000 0.000000 
 0.000000 0.040000 0.000000 
 0.020000 0.040000 0.000000 
 0.040000 0.040000 0.000000 
 0.060000 0.040000 0.000000 
 0.080000 0.040000 0.000000 
 0.100000 0.040000 0.000000 
 0.120000 0.040000 0.000000 
 0.140000 0.040000 0.000000 
 0.160000 0.040000 0.000000 
 0.180000 0.040000 0.000000 
 0.200000 0.040000 0.000000 
 0.220000 0.040000 0.000000 
 0.240000 0.040000 0.000000 
 0.260000 0.040000 0.000000 
 0.280000 0.040000 0.000000 
 0.300000 0.040000 0.000000 
 0.320000 0.040000 0.000000 
 0.340000 0.040000 0.000000 
 0.360000 0.040000 0.000000 
 0.380000 0.040000 0.000000 
 0.400000 0.040000 0.000000 
 0.420000 0.040000 0.000000 
 0.440000 0.040000 0.000000 
 0.460000 0.040000 0.000000 
 0.480000 0.040000 0.000000 
 0.500000 0.040000 0.000000 
 0.520000 0.040000 0.000000 
 0.540000 0.040000 0.000000 
 0.560000 0.040000 0.000000 
 0.580000 0.040000 0.000000 
 0.600000 0.040000 0.000000 
 0.620000 0.040000 0.000000 
 0.640000 0.040000 0.000000 
 0.660000 0.040000 0.000000 
 0.680000 0.040000 0.000000 
 0.700000 0.040000 0.000000 
 0.720000 0.040000 0.000000 
 0.740000 0.040000 0.000000 
 0.760000 0.040000 0.000000 
 0.780000 0.040000 0.000000 
 0.800000 0.040000 0.000000 
 0.820000 0.040000 0.000000 
 0.840000 0.040000 0.000000 
 0.860000 0.040000 0.000000 
 0.880000 0.040000 0.000000 
 0.900000 0.040000 0.000000 
 0.920000 0.040000 0.000000 
 0.940000 0.040000 0.000000 
 0.960000 0.040000 0.000000 
 0.980000 0.040000 0.000000 
 1.000000 0.040000 0.000000 
 0.000000 0.060000 0.000000 
 0.020000 0.060000 0.000000 
 0.040000 0.060000 0.000000 
 0.060000 0.060000 0.000000 
 0.080000 0.060000 0.000000 
 0.100000 0.060000 0.000000 
 0.120000 0.060000 0.000000 
 0.140000 0.060000 0.000000 
 0.160000 0.060000 0.000000 
 0.180000 0.060000 0.000000 
 0.200000 0.060000 0.000000 
 0.220000 0.060000 0.000000 
 0.240000 0.060000 0.000000 
 0.260000 0.060000 0.000000 
 0.280000 0.060000 0.000000 
 0.300000 0.060000 0.000000 
 0.320000 0.060000 0.000000 
 0.340000 0.060000 0.000000 
 0.360000 0.060000 0.000000 
 0.380000 0.060000 0.000000 
 0.400000 0.060000 0.000000 
 0.420000 0.060000 0.000000 
 0.440000 0.060000 0.000000 
 0.460000 0.060000 0.000000 
 0.480000 0.060000 0.000000 
 0.500000 0.060000 0.000000 
 0.520000 0.060000 0.000000 
 0.540000 0.060000 0.000000 
 0.560000 0.060000 0.000000 
 0.580000 0.060000 0.000000 
 0.600000 0.060000 0.000000 
 0.620000 0.060000 0.000000 
 0.640000 0.060000 0.000000 
 0.660000 0.060000 0.000000 
 0.680000 0.060000 0.000000 
 0.700000 0.060000 0.000000 
 0.720000 0.060000 0.000000 
 0.740000 0.060000 0.000000 
 0.760000 0.060000 0.000000 
 0.780000 0.060000 0.000000 
 0.800000 0.060000 0.000000 
 0.820000 0.060000 0.000000 
 0.840000 0.060000 0.000000 
 0.860000 0.060000 0.000000 
 0.880000 0.060000 0.000000 
 0.900000 0.060000 0.000000 
 0.920000 0.060000 0.000000 
 0.940000 0.060000 0.000000 
 0.960000 0.060000 0.000000 
 0.980000 0.060000 0.000000 
 1.000000 0.060000 0.000000 
 0.000000 0.080000 0.000000 
 0.020000 0.080000 0.000000 
 0.040000 0.080000 0.000000 
 0.060000 0.080000 0.000000 
 0.080000 0.080000 0.000000 
 0.100000 0.080000 0.000000 
 0.120000 0.080000 0.000000 
 0.140000 0.080000 0.000000 
 0.160000 0.080000 0.000000 
 0.180000 0.080000 0.000000 
 0.200000 0.080000 0.000000 
 0.220000 0.080000 0.000000 
 0.240000 0.080000 0.000000 
 0.260000 0.080000 0.000000 
 0.280000 0.080000 0.000000 
 0.300000 0.080000 0.000000 
 0.320000 0.080000 0.000000 
 0.340000 0.080000 0.000000 
 0.360000 0.080000 0.000000 
 0.380000 0.080000 0.000000 
 0.400000 0.080000 0.000000 
 0.420000 0.080000 0.000000 
 0.440000 0.080000 0.000000 
 0.460000 0.080000 0.000000 
 0.480000 0.080000 0.000000 
 0.500000 0.080000 0.000000 
 0.520000 0.080000 0.000000 
 0.540000 0.080000 0.000000 
 0.560000 0.080000 0.000000 
 0.580000 0.080000 0.000000 
 0.600000 0.080000 0.000000 
 0.620000 0.080000 0.000000 
 0.640000 0.080000 0.000000 
 0.660000 0.080000 0.000000 
 0.680000 0.080000 0.000000 
 0.700000 0.080000 0.000000 
 0.720000 0.080000 0.000000 
 0.740000 0.080000 0.000000 
 0.760000 0.080000 0.000000 
 0.780000 0.080000 0.000000 
 0.800000 0.080000 0.000000 
 0.820000 0.080000 0.000000 
 0.840000 0.080000 0.000000 
 0.860000 0.080000 0.000000 
 0.880000 0.080000 0.000000 
 0.900000 0.080000 0.000000 
 0.920000 0.080000 0.000000 
 0.940000 0.080000 0.000000 
 0.960000 0.080000 0.000000 
 0.980000 0.080000 0.000000 
 1.000000 0.080000 0.000000 
 0.000000 0.100000 0.000000 
 0.020000 0.100000 0.000000 
 0.040000 0.100000 0.000000 
 0.060000 0.100000 0.000000 
 0.080000 0.100000 0.000000 
 0.100000 0.100000 0.000000 
 0.120000 0.100000 0.000000 
 0.140000 0.100000 0.000000 
 0.160000 0.100000 0.000000 
 0.180000 0.100000 0.000000 
 0.200000 0.100000 0.000000 
 0.220000 0.100000 0.000000 
 0.240000 0.100000 0.000000 
 0.260000 0.100000 0.000000 
 0.280000 0.100000 0.000000 
 0.300000 0.100000 0.000000 
 0.320000 0.100000 0.000000 
 0.340000 0.100000 0.000000 
 0.360000 0.100000 0.000000 
 0.380000 0.100000 0.000000 
 0.400000 0.100000 0.000000 
 0.420000 0.100000 0.000000 
 0.440000 0.100000 0.000000 
 0.460000 0.100000 0.000000 
 0.480000 0.100000 0.000000 
 0.500000 0.100000 0.000000 
 0.520000 0.100000 0.000000 
 0.540000 0.100000 0.000000 
 0.560000 0.100000 0.000000 
 0.580000 0.100000 0.000000 
 0.600000 0.100000 0.000000 
 0.620000 0.100000 0.000000 
 0.640000 0.100000 0.000000 
 0.660000 0.100000 0.000000 
 0.680000 0.100000 0.000000 
 0.700000 0.100000 0.000000 
 0.720000 0.100000 0.000000 
 0.740000 0.100000 0.000000 
 0.760000 0.100000 0.000000 
 0.780000 0.100000 0.000000 
 0.800000 0.100000 0.000000 
 0.820000 0.100000 0.000000 
 0.840000 0.100000 0.000000 
 0.860000 0.100000 0.000000 
 0.880000 0.100000 0.000000 
 0.900000 0.100000 0.000000 
 0.920000 0.100000 0.000000 
 0.940000 0.100000 0.000000 
 0.960000 0.100000 0.000000 
 0.980000 0.100000 0.000000 
 1.000000 0.100000 0.000000 
 0.000000 0.120000 0.000000 
 0.020000 0.120000 0.000000 
 0.040000 0.120000 0.000000 
 0.060000 0.120000 0.000000 
 0.080000 0.120000 0.000000 
 0.100000 0.120000 0.000000 
 0.120000 0.120000 0.000000 
 0.140000 0.120000 0.000000 
 0.160000 0.120000 0.000000 
 0.180000 0.120000 0.000000 
 0.200000 0.120000 0.000000 
 0.220000 0.120000 0.000000 
 0.240000 0.120000 0.000000 
 0.260000 0.120000 0.000000 
 0.280000 0.120000 0.000000 
 0.300000 0.120000 0.000000 
 0.320000 0.120000 0.000000 
 0.340000 0.120000 0.000000 
 0.360000 0.120000 0.000000 
 0.380000 0.120000 0.000000 
 0.400000 0.120000 0.000000 
 0.420000 0.120000 0.000000 
 0.440000 0.120000 0.000000 
 0.460000 0.120000 0.000000 
 0.480000 0.120000 0.000000 
 0.500000 0.120000 0.000000 
 0.520000 0.120000 0.000000 
 0.540000 0.120000 0.000000 
 0.560000 0.120000 0.000000 
 0.580000 0.120000 0.000000 
 0.600000 0.120000 0.000000 
[...]
<PointData  Scalars="U"> 
<DataArray  type="Float64"  Name="U"  format="ascii"> 
 0.000000e+00
 0.000000e+00
 0.000000e+00
 0.000000e+00
 0.000000e+00
 0.000000e+00
 0.000000e+00
 0.000000e+00
 0.000000e+00
 0.000000e+00
 0.000000e+00
 0.000000e+00
 0.000000e+00
 0.000000e+00
 0.000000e+00
 0.000000e+00
 0.000000e+00
 0.000000e+00
 0.000000e+00
 0.000000e+00
 0.000000e+00
 0.000000e+00
 0.000000e+00
 0.000000e+00
 0.000000e+00
 0.000000e+00
 0.000000e+00
 0.000000e+00
 0.000000e+00
 0.000000e+00
 0.000000e+00
 0.000000e+00
 0.000000e+00
 0.000000e+00
 0.000000e+00
 0.000000e+00
 0.000000e+00
 0.000000e+00
 0.000000e+00
 0.000000e+00
 0.000000e+00
 0.000000e+00
 0.000000e+00
 0.000000e+00
 0.000000e+00
 0.000000e+00
 0.000000e+00
 0.000000e+00
 0.000000e+00
 0.000000e+00
 0.000000e+00
 0.000000e+00
 -1.003546e-07
 -8.761174e-09
 3.223471e-07
 1.777844e-05
 -5.294620e-09
 -9.331031e-08
 -2.668359e-07
 -1.429146e-06
 -2.062167e-07
 8.952184e-07
 3.894894e-07
 -7.718675e-07
 3.130667e-07
 1.811643e-05
 -1.471762e-06
 -1.491160e-06
 -5.173985e-07
 1.832660e-05
 8.564952e-07
 3.567308e-08
 -1.462573e-07
 -1.481258e-07
 -1.110553e-07
 -7.103984e-08
 -2.809996e-08
 6.352208e-09
 1.834568e-08
 1.337198e-08
 3.666463e-09
 -4.569579e-09
 -1.053647e-08
 -1.552893e-08
 -2.158564e-08
 -3.142674e-08
 -4.848680e-08
 -7.545889e-08
 -1.087528e-07
 -1.260202e-07
 -8.017442e-08
 3.482694e-08
 1.204168e-07
 1.170103e-07
 7.544415e-08
 4.018583e-08
 1.919330e-08
 8.300075e-09
 3.127416e-09
 9.249606e-10
 1.573308e-10
 0.000000e+00
 0.000000e+00
 -2.147406e-07
 -1.113085e-06
 1.103887e-06
 1.232419e-06
 -8.995843e-07
 -1.471713e-07
 -1.227480e-07
 -2.753956e-07
 1.620028e-05
 1.523145e-07
 1.195072e-06
 6.971147e-07
 1.860223e-05
 1.104034e-07
 -1.247219e-06
 1.727550e-05
 1.694530e-05
 1.725356e-05
 -7.839587e-07
 -4.369010e-07
 -4.292604e-07
 -3.213927e-07
 -2.184340e-07
 -1.493139e-07
 -4.848628e-08
 4.001040e-08
 5.450597e-08
 2.998253e-08
 4.954842e-09
 -1.168224e-08
 -2.213744e-08
 -3.010338e-08
 -3.953923e-08
 -5.562980e-08
 -8.618660e-08
 -1.418174e-07
 -2.267631e-07
 -3.202703e-07
 -2.568510e-07
 1.089593e-07
 3.565830e-07
 2.656961e-07
 1.373947e-07
 6.482368e-08
 2.847744e-08
 1.118894e-08
 3.485434e-09
 5.174986e-10
 -1.952025e-10
 0.000000e+00
 0.000000e+00
 -3.291761e-08
 -9.672895e-07
 1.789684e-05
 1.087920e-06
 1.518307e-07
 -2.520833e-08
 7.361120e-08
 7.225389e-07
 7.449281e-08
 1.650290e-05
 2.813077e-07
 1.194282e-06
 4.129027e-07
 -9.615414e-07
 7.476152e-07
 1.078193e-06
 -2.221708e-07
 1.583449e-05
 -2.168877e-06
 -1.059696e-06
 -8.304143e-07
 -4.731992e-07
 -2.640495e-07
 -2.930706e-07
 -5.894955e-08
 1.734445e-07
 1.256461e-07
 4.101205e-08
 -3.386908e-09
 -2.503701e-08
 -3.623107e-08
 -4.340072e-08
 -5.128907e-08
 -6.599660e-08
 -9.863778e-08
 -1.725628e-07
 -3.365838e-07
 -5.315237e-07
 -1.315263e-06
 2.460245e-07
 1.098540e-06
 3.593522e-07
 1.381598e-07
 5.485078e-08
 2.004138e-08
 5.222783e-09
 -5.261558e-10
 -1.969948e-09
 -1.389595e-09
 0.000000e+00
 0.000000e+00
 3.836152e-07
 1.148393e-06
 1.778452e-05
 -1.033691e-06
 -5.336645e-08
 4.601438e-08
 7.439210e-08
 -7.471223e-07
 9.631749e-07
 6.378152e-07
 -1.217593e-06
 1.069363e-07
 1.462165e-07
 -2.478111e-07
 8.838087e-09
 6.344537e-07
 1.282000e-06
 -1.668870e-07
 -2.035999e-06
 -1.179997e-06
 -1.979934e-06
 -5.683031e-07
 2.669499e-07
 -1.370965e-06
 -1.549989e-07
 7.603890e-07
 1.494861e-07
 8.744586e-09
 -3.265099e-08
 -4.789863e-08
 -5.411114e-08
 -5.619191e-08
 -5.696498e-08
 -6.025014e-08
 -7.401400e-08
 -1.200182e-07
 -2.760643e-07
 -1.321914e-06
 -2.800071e-08
 1.834270e-05
 2.423670e-07
 1.027989e-07
 2.992285e-08
 3.795168e-09
 -6.059433e-09
 -8.946437e-09
 -8.478696e-09
 -6.321412e-09
 -3.331845e-09
 0.000000e+00
 0.000000e+00
 4.981733e-07
 1.351668e-06
 3.957020e-07
 -1.077565e-06
 -8.422424e-08
 1.278052e-07
 2.845799e-07
 3.677068e-07
 1.778029e-05
 -1.448707e-07
 -1.460892e-06
 -1.648408e-07
 5.731495e-07
 -1.357613e-06
 -1.366821e-06
 -1.520229e-07
 1.329083e-06
 9.147512e-07
 -4.234155e-07
 -6.528222e-07
 -5.967693e-07
 1.695563e-05
 -4.192982e-07
 -3.599035e-07
 1.715376e-05
 -2.240683e-07
 -1.214672e-07
 -9.391533e-08
 -8.162767e-08
 -7.840497e-08
 -7.591060e-08
 -7.045133e-08
 -6.069466e-08
 -4.574791e-08
 -2.348726e-08
 1.360091e-08
 9.450521e-08
 2.385774e-07
 1.834043e-05
 -3.023328e-08
 -1.323756e-06
 -2.755844e-07
 -1.145297e-07
 -6.105829e-08
 -3.839173e-08
 -2.619744e-08
 -1.800107e-08
 -1.144899e-08
 -5.593482e-09
 0.000000e+00
 0.000000e+00
 2.550893e-07
 2.024996e-08
 3.600604e-07
 7.710263e-07
 1.622322e-07
 2.290754e-07
 4.710648e-07
 1.166421e-06
 2.421755e-07
 -1.164127e-06
 -2.241719e-07
 1.737411e-05
 -4.114304e-08
 -1.007214e-07
 1.730264e-05
 1.750363e-05
 1.763136e-05
 -9.388755e-08
 -3.285787e-07
 -2.836095e-07
 3.899018e-07
 -4.212606e-07
 -1.541711e-06
 1.906881e-07
 -4.850652e-07
 -1.608699e-06
 -3.933985e-07
 -1.755292e-07
 -1.222250e-07
 -1.090851e-07
 -1.010243e-07
 -8.906920e-08
 -6.946075e-08
 -3.788212e-08
 1.473816e-08
 1.140967e-07
 3.469726e-07
 1.092261e-06
 2.408323e-07
 -1.322405e-06
 -5.410727e-07
 -3.467802e-07
 -1.805045e-07
 -1.015104e-07
 -6.197804e-08
 -4.000019e-08
 -2.607495e-08
 -1.595314e-08
 -7.617934e-09
 0.000000e+00
 0.000000e+00
 1.749936e-05
 1.233493e-08
 1.742849e-05
 -4.711014e-08
 9.008840e-08
 2.176503e-07
 3.760541e-07
 4.836123e-07
 2.959304e-07
 1.563482e-07
 8.175532e-07
 7.001914e-08
 -1.007094e-06
 7.718033e-07
 -2.497340e-07
 -5.214788e-07
 -8.486453e-07
 -1.674719e-06
 -6.060343e-07
 -3.643291e-07
 -2.226590e-07
 -3.765865e-07
 -5.621033e-07
 -5.388084e-07
 -6.566450e-07
 -5.616213e-07
 -2.263531e-07
 -1.268363e-07
 -1.356358e-07
 -1.378326e-07
 -1.305796e-07
 -1.152202e-07
 -8.957276e-08
 -4.892055e-08
 1.367657e-08
 1.102151e-07
 2.551331e-07
 3.530751e-07
 1.039785e-07
 -2.685107e-07
 -3.394843e-07
 -2.507573e-07
 -1.661576e-07
 -1.067791e-07
 -6.984884e-08
 -4.652127e-08
 -3.067541e-08
 -1.881190e-08
 -8.977820e-09
 0.000000e+00
 0.000000e+00
 -9.812879e-08
 -7.103089e-07
 -5.548111e-07
 -1.426365e-06
 -2.931839e-08
 1.808817e-07
 2.446282e-07
 2.768822e-07
 2.532258e-07
 2.646504e-07
 3.330389e-07
 2.021599e-07
 1.190814e-07
 3.701993e-07
 3.382230e-07
 1.733414e-05
 -6.593507e-07
 -8.200390e-07
 -6.633952e-07
 -4.657266e-07
 -3.723919e-07
 -3.889603e-07
 -4.609300e-07
 -6.170541e-07
 -1.708005e-06
 -4.238346e-07
 5.161710e-07
 -5.625971e-08
 -1.621620e-07
 -1.756189e-07
 -1.675627e-07
 -1.512595e-07
 -1.244314e-07
 -8.111313e-08
 -1.969127e-08
 5.306427e-08
 1.183998e-07
 1.285893e-07
 3.545115e-08
 -9.559961e-08
 -1.580498e-07
 -1.513391e-07
 -1.204750e-07
 -8.945884e-08
 -6.472256e-08
 -4.600322e-08
 -3.153920e-08
 -1.976250e-08
 -9.530359e-09
 0.000000e+00
 0.000000e+00
 -1.038985e-07
 -3.821725e-07
 -1.605684e-06
 -4.238109e-07
 6.133492e-07
 1.684175e-07
 1.326313e-07
 1.570869e-07
 1.788154e-07
 2.023560e-07
 2.208324e-07
 2.112721e-07
 2.449266e-07
 4.210979e-07
 9.817322e-07
 -1.523136e-07
 -1.720868e-06
 -7.835204e-07
 -6.012903e-07
 -4.729745e-07
 -3.921860e-07
 -3.558201e-07
 -3.393443e-07
 -3.175367e-07
 -3.485345e-07
 1.710880e-05
 -3.332082e-07
 -2.716336e-07
 -2.521537e-07
 -2.282640e-07
 -2.107244e-07
 -1.972074e-07
 -1.766267e-07
 -1.329909e-07
 -6.560321e-08
 -2.226982e-09
 3.129232e-08
 3.461731e-08
 1.520821e-08
 -1.886440e-08
 -5.179976e-08
 -6.997228e-08
 -7.232310e-08
 -6.487663e-08
 -5.343382e-08
 -4.129529e-08
 -2.979311e-08
 -1.921848e-08
 -9.403885e-09
 0.000000e+00
 0.000000e+00
 -4.525471e-08
 -9.877024e-08
 -2.039419e-07
 1.721404e-05
 -2.028578e-07
 -8.463157e-08
 -1.302515e-08
 5.106385e-08
 9.933822e-08
 1.356839e-07
 1.615881e-07
 1.811326e-07
 2.155285e-07
 2.771209e-07
 2.532087e-07
 -1.210142e-07
 -5.409812e-07
 -5.991140e-07
 -5.081021e-07
 -4.289587e-07
 -3.629536e-07
 -3.035143e-07
 -2.241065e-07
 -4.378454e-08
 6.038440e-07
 -3.010957e-07
 -1.609299e-06
 -5.257992e-07
 -3.410330e-07
 -2.730253e-07
 -2.484334e-07
 -2.487146e-07
 -2.544187e-07
 -2.152545e-07
 -1.068863e-07
 -2.157886e-08
 -2.505993e-08
 -3.714907e-08
 1.179218e-08
 5.633870e-08
 3.692833e-08
 -5.562575e-09
 -3.375084e-08
 -4.380254e-08
 -4.251092e-08
 -3.579021e-08
 -2.705160e-08
 -1.788811e-08
 -8.857938e-09
 0.000000e+00
 0.000000e+00
 3.223286e-08
 1.588218e-07
 7.588006e-07
 -1.719038e-07
 -1.475536e-06
 -3.654240e-07
 -1.448507e-07
 -3.743497e-08
 3.082106e-08
 7.921980e-08
 1.132006e-07
 1.355162e-07
 1.480722e-07
 1.376750e-07
 5.764706e-08
 -1.242296e-07
 -3.148653e-07
 -4.027820e-07
 -4.037142e-07
 -3.704553e-07
 -3.240425e-07
 -2.650154e-07
 -1.831307e-07
 -6.466260e-08
 5.165974e-09
 -2.300593e-07
 -5.051525e-07
 -4.653922e-07
 -3.427067e-07
 -2.806309e-07
 -2.614764e-07
 -2.868035e-07
 -3.780126e-07
 -3.969378e-07
 -1.199129e-07
 8.382692e-08
 -7.596804e-08
 -2.038013e-07
 1.629318e-08
 2.211279e-07
 1.431362e-07
 3.782487e-08
 -1.438521e-08
 -3.369896e-08
 -3.655935e-08
 -3.200383e-08
 -2.457127e-08
 -1.634367e-08
 -8.107163e-09
 0.000000e+00
 0.000000e+00
 4.317110e-08
 1.164748e-07
 1.475093e-07
 -1.110097e-07
 -3.906450e-07
 -3.391424e-07
 -1.919750e-07
 -9.286688e-08
 -1.970690e-08
 3.687566e-08
 7.685155e-08
 9.761802e-08
 9.626254e-08
 6.564369e-08
 -5.435389e-09
 -1.136842e-07
 -2.237170e-07
 -2.966548e-07
 -3.254456e-07
 -3.224166e-07
 -2.960771e-07
 -2.479552e-07
 -1.826007e-07
 -1.218188e-07
 -1.161167e-07
 -2.020033e-07
 -3.006050e-07
 -3.193982e-07
 -2.846810e-07
 -2.489619e-07
 -2.337885e-07
 -2.602017e-07
 -4.058081e-07
 -1.460208e-06
 -1.447597e-07
 7.244779e-07
 -7.482799e-08
 -1.305661e-06
 -4.465597e-08
 8.411509e-07
 1.908176e-07
 2.400294e-08
 -2.626336e-08
 -3.878884e-08
 -3.731033e-08
 -3.070924e-08
 -2.268356e-08
 -1.470716e-08
 -7.185396e-09
 0.000000e+00
 0.000000e+00
 1.971281e-08
 3.091859e-08
 -2.934417e-09
 -1.129757e-07
 -2.217966e-07
 -2.393231e-07
 -1.911947e-07
 -1.250996e-07
 -5.524700e-08
 1.084551e-08
 5.989863e-08
 8.107763e-08
 7.235701e-08
 3.621818e-08
 -2.408378e-08
 -1.004627e-07
 -1.770026e-07
 -2.380394e-07
 -2.775774e-07
 -2.961841e-07
 -2.903488e-07
 -2.508347e-07
 -1.834704e-07
 -1.260002e-07
 -1.174205e-07
 -1.573050e-07
 -2.063156e-07
 -2.278646e-07
 -2.196178e-07
 -1.969950e-07
 -1.710555e-07
 -1.445584e-07
 -1.096552e-07
 -1.222211e-07
 1.734900e-05
 -9.996170e-08
 -5.400511e-08
 -9.866354e-08
 1.735491e-05
 -1.052317e-07
 -7.288993e-08
 -7.896856e-08
 -6.944470e-08
 -5.596140e-08
 -4.245135e-08
 -3.050730e-08
 -2.058278e-08
 -1.253462e-08
 -5.893083e-09
 0.000000e+00
 0.000000e+00
 -1.268110e-09
 -1.350483e-08
 -5.003373e-08
 -1.123224e-07
 -1.740922e-07
 -2.053130e-07
 -1.999626e-07
 -1.611312e-07
 -8.858896e-08
 2.382487e-09
 7.271537e-08
 9.513615e-08
 7.568398e-08
 3.177307e-08
 -2.490754e-08
 -8.705852e-08
 -1.478774e-07
 -2.022679e-07
 -2.497367e-07
 -2.925866e-07
 -3.207041e-07
 -2.888174e-07
 -1.749462e-07
 -7.328898e-08
 -6.234476e-08
 -1.042336e-07
 -1.471402e-07
 -1.690176e-07
 -1.674698e-07
 -1.469365e-07
 -1.076731e-07
 -3.295030e-08
 1.515520e-07
 8.110652e-07
 -7.288566e-08
 -1.336007e-06
 -1.072928e-07
 6.934057e-07
 -1.677694e-07
 -1.465351e-06
 -3.809853e-07
 -1.934630e-07
 -1.157614e-07
 -7.282630e-08
 -4.584814e-08
 -2.819395e-08
 -1.655462e-08
 -8.924828e-09
 -3.837401e-09
 0.000000e+00
 0.000000e+00
 -1.227743e-08
 -3.200298e-08
 -6.505270e-08
 -1.113572e-07
 -1.628283e-07
 -2.091464e-07
 -2.403441e-07
 -2.337502e-07
 -1.462336e-07
 1.714273e-08
 1.407732e-07
 1.524799e-07
 1.018667e-07
 3.937235e-08
 -2.014652e-08
 -7.521563e-08
 -1.260847e-07
 -1.741752e-07
 -2.253780e-07
 -2.950961e-07
 -4.115438e-07
 -4.387804e-07
 -1.499227e-07
 9.868866e-08
 4.344397e-08
 -5.628204e-08
 -1.120927e-07
 -1.347146e-07
 -1.335688e-07
 -1.132584e-07
 -7.290303e-08
 -3.267932e-09
 1.103972e-07
 1.856604e-07
 -3.019567e-08
 -2.633096e-07
 -1.444779e-07
 1.375122e-08
 -1.817520e-07
 -4.367740e-07
 -3.775841e-07
 -2.282456e-07
 -1.334981e-07
 -7.512321e-08
 -4.035531e-08
 -2.006324e-08
 -8.596420e-09
 -2.795275e-09
 -5.366234e-10
 0.000000e+00
 0.000000e+00
 -1.570417e-08
 -3.614272e-08
 -6.514295e-08
 -1.049365e-07
 -1.573161e-07
 -2.263463e-07
 -3.122307e-07
 -3.937322e-07
 -3.084562e-07
 8.241847e-08
 3.498224e-07
 2.668842e-07
 1.327353e-07
 4.245378e-08
 -1.985268e-08
 -6.768467e-08
 -1.077776e-07
 -1.444987e-07
 -1.851962e-07
 -2.513887e-07
 -4.226975e-07
 -1.488971e-06
 -1.669052e-07
 7.470623e-07
 1.087910e-07
 -5.607166e-08
 -1.091307e-07
 -1.234612e-07
 -1.179910e-07
 -9.822538e-08
 -6.550028e-08
 -2.114953e-08
 2.268512e-08
 2.446103e-08
 -5.105424e-08
 -1.304093e-07
 -1.372670e-07
 -1.400741e-07
 -2.210530e-07
 -3.089730e-07
 -2.976977e-07
 -2.090857e-07
 -1.159441e-07
 -5.429016e-08
 -2.103112e-08
 -3.532993e-09
 4.883744e-09
 6.840932e-09
 4.470533e-09
 0.000000e+00
 0.000000e+00
 -1.425026e-08
 -3.139873e-08
 -5.427866e-08
 -8.645758e-08
 -1.354755e-07
 -2.210138e-07
 -3.894500e-07
 -5.812134e-07
 -1.356014e-06
 2.162748e-07
 1.077375e-06
 3.407469e-07
 1.145318e-07
 1.916107e-08
 -3.284046e-08
 -6.749997e-08
 -9.323819e-08
 -1.126363e-07
 -1.261320e-07
 -1.324279e-07
 -1.230489e-07
 -1.545024e-07
 1.730330e-05
 -1.560432e-07
 -1.270319e-07
 -1.401541e-07
 -1.386494e-07
 -1.303625e-07
 -1.161169e-07
 -9.599589e-08
 -7.093629e-08
 -4.462639e-08
 -2.671059e-08
 -3.205625e-08
 -6.521048e-08
 -1.059619e-07
 -1.379302e-07
 -1.782540e-07
 -2.460312e-07
 -3.124622e-07
 -3.021447e-07
 -1.853217e-07
 -5.964971e-08
 -4.096869e-09
 1.248107e-08
 2.145047e-08
 2.485141e-08
 2.083123e-08
 1.153937e-08
 0.000000e+00
 0.000000e+00
 -9.867197e-09
 -2.098213e-08
 -3.464525e-08
 -5.293383e-08
 -8.154908e-08
 -1.399477e-07
 -3.043028e-07
 -1.353930e-06
 -6.010775e-08
 1.831231e-05
 2.132060e-07
 7.235468e-08
 -5.408476e-09
 -3.999666e-08
 -6.084647e-08
 -7.542946e-08
 -8.475154e-08
 -8.648912e-08
 -7.356951e-08
 -2.494307e-08
 1.349566e-07
 7.696768e-07
 -1.458885e-07
 -1.468442e-06
 -4.030748e-07
 -2.345953e-07
 -1.742741e-07
 -1.431751e-07
 -1.202441e-07
 -9.910198e-08
 -7.866027e-08
 -6.111768e-08
 -5.139611e-08
 -5.483110e-08
 -7.219529e-08
 -9.835963e-08
 -1.310822e-07
 -1.795013e-07
 -2.615297e-07
 -3.988810e-07
 -4.448444e-07
 -1.646499e-07
 9.417091e-08
 7.979863e-08
 4.750764e-08
 5.232548e-08
 5.314929e-08
 4.013580e-08
 2.065091e-08
 0.000000e+00
 0.000000e+00
 -4.229210e-09
 -8.098806e-09
 -1.084450e-08
 -1.079337e-08
 -4.296725e-09
 1.789852e-08
 8.613676e-08
 2.203694e-07
 1.831508e-05
 -6.069729e-08
 -1.358243e-06
 -3.140652e-07
 -1.578204e-07
 -1.102899e-07
 -9.426893e-08
 -8.815858e-08
 -8.321529e-08
 -7.324764e-08
 -5.037683e-08
 -1.314392e-09
 9.011660e-08
 1.401716e-07
 -1.091120e-07
 -3.957472e-07
 -3.663190e-07
 -2.506635e-07
 -1.872398e-07
 -1.496640e-07
 -1.233162e-07
 -1.020195e-07
 -8.399114e-08
 -6.997522e-08
 -6.208355e-08
 -6.229267e-08
 -7.085600e-08
 -8.656628e-08
 -1.099736e-07
 -1.478021e-07
 -2.214195e-07
 -4.087430e-07
 -1.497708e-06
 -2.034932e-07
 6.911248e-07
 8.983461e-08
 4.235117e-08
 9.513926e-08
 9.783929e-08
 6.495694e-08
 3.013236e-08
 0.000000e+00
 0.000000e+00
 1.115124e-09
 3.801449e-09
 1.043877e-08
 2.561905e-08
 5.971207e-08
 1.402554e-07
 3.555194e-07
 1.085086e-06
 2.201327e-07
 -1.354052e-06
 -5.808819e-07
 -3.923888e-07
 -2.304961e-07
 -1.553383e-07
 -1.193500e-07
 -1.000343e-07
 -8.643149e-08
 -7.199591e-08
 -5.189174e-08
 -2.401528e-08
 1.091092e-09
 -1.800612e-08
 -1.174293e-07
 -2.232270e-07
 -2.468172e-07
 -2.149049e-07
 -1.768685e-07
 -1.462406e-07
 -1.220058e-07
 -1.020724e-07
 -8.555288e-08
 -7.269923e-08
 -6.432877e-08
 -6.105187e-08
 -6.264317e-08
 -6.808778e-08
 -7.629695e-08
 -8.653363e-08
 -9.742048e-08
 -1.014922e-07
 -1.597304e-07
 1.724478e-05
 -3.202987e-07
 -3.116164e-07
 -3.132025e-08
 2.218707e-07
 1.759022e-07
 8.586312e-08
 3.355421e-08
 0.000000e+00
 0.000000e+00
 5.009885e-09
 1.207278e-08
 2.398132e-08
 4.536558e-08
 8.464874e-08
 1.568648e-07
 2.786404e-07
 3.547794e-07
 8.533675e-08
 -3.042546e-07
 -3.870808e-07
 -3.048937e-07
 -2.232833e-07
 -1.653494e-07
 -1.294525e-07
 -1.068256e-07
 -9.068717e-08
 -7.666713e-08
 -6.268686e-08
 -5.030610e-08
 -4.767398e-08
 -6.841412e-08
 -1.151298e-07
 -1.626976e-07
 -1.832133e-07
 -1.765783e-07
 -1.576150e-07
 -1.364631e-07
 -1.166355e-07
 -9.891085e-08
 -8.354939e-08
 -7.090333e-08
 -6.131973e-08
 -5.478667e-08
 -5.057300e-08
 -4.694320e-08
 -4.055461e-08
 -2.402886e-08
 2.346838e-08
 1.760719e-07
 7.917699e-07
 -1.744951e-07
 -1.657595e-06
 -1.651246e-06
 -1.560885e-07
 8.204663e-07
 2.125612e-07
 6.494396e-08
 1.930034e-08
 0.000000e+00
 0.000000e+00
 6.965845e-09
 1.578125e-08
 2.864023e-08
 4.835524e-08
 7.810314e-08
 1.185626e-07
 1.555329e-07
 1.381170e-07
 1.568068e-08
 -1.411022e-07
 -2.190949e-07
 -2.175715e-07
 -1.861043e-07
 -1.529943e-07
 -1.267640e-07
 -1.075270e-07
 -9.316309e-08
 -8.183681e-08
 -7.302921e-08
 -6.831261e-08
 -7.153715e-08
 -8.648049e-08
 -1.112455e-07
 -1.357363e-07
 -1.492345e-07
 -1.490880e-07
 -1.393605e-07
 -1.249858e-07
 -1.091186e-07
 -9.341857e-08
 -7.883612e-08
 -6.598483e-08
 -5.513612e-08
 -4.603907e-08
 -3.769058e-08
 -2.802684e-08
 -1.326438e-08
 1.368960e-08
 6.612573e-08
 1.607107e-07
 2.146361e-07
 -2.785904e-08
 -2.955442e-07
 -2.908621e-07
 1.728689e-05
 -1.069927e-07
 -4.088277e-08
 -3.123495e-08
 -1.565350e-08
 0.000000e+00
 0.000000e+00
 7.130345e-09
 1.555819e-08
 2.655529e-08
 4.111570e-08
 5.902083e-08
 7.636700e-08
 8.147134e-08
 5.548144e-08
 -9.005230e-09
 -8.577790e-08
 -1.375089e-07
 -1.539186e-07
 -1.475102e-07
 -1.324868e-07
 -1.168218e-07
 -1.034365e-07
 -9.282139e-08
 -8.484304e-08
 -7.973083e-08
 -7.849958e-08
 -8.267225e-08
 -9.296587e-08
 -1.074834e-07
 -1.215116e-07
 -1.301429e-07
 -1.311812e-07
 -1.253711e-07
 -1.147483e-07
 -1.013317e-07
 -8.676335e-08
 -7.233911e-08
 -5.897736e-08
 -4.707657e-08
 -3.637429e-08
 -2.586152e-08
 -1.370568e-08
 2.867655e-09
 2.748689e-08
 6.273299e-08
 1.005782e-07
 1.065946e-07
 6.570214e-08
 1.275204e-07
 7.443383e-07
 -1.355012e-07
 -1.417963e-06
 -3.215368e-07
 -1.296228e-07
 -5.016316e-08
 0.000000e+00
 0.000000e+00
 5.998314e-09
 1.273624e-08
 2.074696e-08
 2.998868e-08
 3.914342e-08
 4.459299e-08
 3.996932e-08
 1.875137e-08
 -1.889217e-08
 -6.183903e-08
 -9.542999e-08
 -1.127792e-07
 -1.162633e-07
 -1.117683e-07
 -1.042254e-07
 -9.649503e-08
 -8.991673e-08
 -8.513165e-08
 -8.266893e-08
 -8.317251e-08
 -8.720357e-08
 -9.465475e-08
 -1.041676e-07
 -1.132350e-07
 -1.191931e-07
 -1.203170e-07
 -1.161597e-07
 -1.072325e-07
 -9.464279e-08
 -7.990486e-08
 -6.469251e-08
 -5.039668e-08
 -3.769371e-08
 -2.638484e-08
 -1.551747e-08
 -3.627522e-09
 1.095166e-08
 2.944391e-08
 5.098822e-08
 7.009941e-08
 7.926308e-08
 8.822234e-08
 1.377748e-07
 1.718220e-07
 -6.760548e-08
 -3.332994e-07
 -2.816820e-07
 -1.452716e-07
 -6.141281e-08
 0.000000e+00
 0.000000e+00
 4.096606e-09
 8.555307e-09
 1.350750e-08
 1.855920e-08
 2.242888e-08
 2.270104e-08
 1.621557e-08
 7.119092e-10
 -2.273626e-08
 -4.894220e-08
 -7.136129e-08
 -8.600739e-08
 -9.272758e-08
 -9.371103e-08
 -9.156012e-08
 -8.829313e-08
 -8.521014e-08
 -8.312909e-08
 -8.263960e-08
 -8.420856e-08
 -8.808492e-08
 -9.405964e-08
 -1.012676e-07
 -1.082516e-07
 -1.133114e-07
 -1.148919e-07
 -1.118103e-07
 -1.034496e-07
 -9.013614e-08
 -7.347361e-08
 -5.600119e-08
 -4.006849e-08
 -2.678837e-08
 -1.586832e-08
 -6.155121e-09
 3.714925e-09
 1.482481e-08
 2.750172e-08
 4.073878e-08
 5.213729e-08
 6.005483e-08
 6.695927e-08
 7.148001e-08
 4.231722e-08
 -5.435832e-08
 -1.487872e-07
 -1.571068e-07
 -1.084081e-07
 -5.212160e-08
 0.000000e+00
 0.000000e+00
 1.796352e-09
 3.795981e-09
 6.019186e-09
 8.106505e-09
 9.148195e-09
 7.682020e-09
 2.082052e-09
 -8.572258e-09
 -2.355472e-08
 -4.035664e-08
 -5.579416e-08
 -6.755598e-08
 -7.496398e-08
 -7.866549e-08
 -7.988204e-08
 -7.982727e-08
 -7.946813e-08
 -7.952053e-08
 -8.052023e-08
 -8.286005e-08
 -8.675020e-08
 -9.212313e-08
 -9.854999e-08
 -1.052234e-07
 -1.109726e-07
 -1.142153e-07
 -1.128958e-07
 -1.048536e-07
 -8.916247e-08
 -6.781803e-08
 -4.553357e-08
 -2.683151e-08
 -1.337896e-08