<VTKFile type="UnstructuredGrid"  version="0.1"   >
<UnstructuredGrid>  
<Piece  NumberOfPoints="     2601"  NumberOfCells="     5000">  
<Points>  
<DataArray  type="Float64"  NumberOfComponents="3"  format="ascii">  
 0.000000 0.000000 0.000000 
 0.020000 0.000000 0.000000 
 0.040000 0.000000 0.000000 
 0.060000 0.000000 0.000000 
 0.080000 0.000000 0.000000 
 0.100000 0.000000 0.000000 
 0.120000 0.000000 0.000000 
 0.140000 0.000000 0.000000 
 0.160000 0.000000 0.000000 
 0.180000 0.000000 0.000000 
 0.200000 0.000000 0.000000 
 0.220000 0.000000 0.000000 
 0.240000 0.000000 0.000000 
 0.260000 0.000000 0.000000 
 0.280000 0.000000 0.000000 
 0.300000 0.000000 0.000000 
 0.320000 0.000000 0.000000 
 0.340000 0.000000 0.000000 
 0.360000 0.000000 0.000000 
 0.380000 0.000000 0.000000 
 0.400000 0.000000 0.000000 
 0.420000 0.000000 0.000000 
 0.440000 0.000000 0.000000 
 0.460000 0.000000 0.000000 
 0.480000 0.000000 0.000000 
 0.500000 0.000000 0.000000 
 0.520000 0.000000 0.000000 
 0.540000 0.000000 0.000000 
 0.560000 0.000000 0.000000 
 0.580000 0.000000 0.000000 
 0.600000 0.000000 0.000000 
 0.620000 0.000000 0.000000 
 0.640000 0.000000 0.000000 
 0.660000 0.000000 0.000000 
 0.680000 0.000000 0.000000 
 0.700000 0.000000 0.000000 
 0.720000 0.000000 0.000000 
 0.740000 0.000000 0.000000 
 0.760000 0.000000 0.000000 
 0.780000 0.000000 0.000000 
 0.800000 0.000000 0.000000 
 0.820000 0.000000 0.000000 
 0.840000 0.000000 0.000000 
 0.860000 0.000000 0.000000 
 0.880000 0.000000 0.000000 
 0.900000 0.000000 0.000000 
 0.920000 0.000000 0.000000 
 0.940000 0.000000 0.000000 
 0.960000 0.000000 0.000000 
 0.980000 0.000000 0.000000 
 1.000000 0.000000 0.000000 
 0.000000 0.020000 0.000000 
 0.020000 0.020000 0.000000 
 0.040000 0.020000 0.000000 
 0.060000 0.020000 0.000000 
 0.080000 0.020000 0.000000 
 0.100000 0.020000 0.000000 
 0.120000 0.020000 0.000000 
 0.140000 0.020000 0.000000 
 0.160000 0.020000 0.000000 
 0.180000 0.020000 0.000000 
 0.200000 0.020000 0.000000 
 0.220000 0.020000 0.000000 
 0.240000 0.020000 0.000000 
 0.260000 0.020000 0.000000 
 0.280000 0.020000 0.000000 
 0.300000 0.020000 0.000000 
 0.320000 0.020000 0.000000 
 0.340000 0.020000 0.000000 
 0.360000 0.020000 0.000000 
 0.380000 0.020000 0.000000 
 0.400000 0.020000 0.000000 
 0.420000 0.020000 0.000000 
 0.440000 0.020000 0.000000 
 0.460000 0.020000 0.000000 
 0.480000 0.020000 0.000000 
 0.500000 0.020000 0.000000 
 0.520000 0.020000 0.000000 
 0.540000 0.020000 0.000000 
 0.560000 0.020000 0.000000 
 0.580000 0.020000 0.000000 
 0.600000 0.020000 0.000000 
 0.620000 0.020000 0.000000 
 0.640000 0.020000 0.000000 
 0.660000 0.020000 0.000000 
 0.680000 0.020000 0.000000 
 0.700000 0.020000 0.000000 
 0.720000 0.020000 0.000000 
 0.740000 0.020000 0.000000 
 0.760000 0.020000 0.000000 
 0.780000 0.020000 0.000000 
 0.800000 0.020000 0.000000 
 0.820000 0.020000 0.000000 
 0.840000 0.020000 0.000000 
 0.860000 0.020000 0.000000 
 0.880000 0.020000 0.000000 
 0.900000 0.020000 0.000000 
 0.920000 0.020000 0.000000 
 0.940000 0.020000 0.000000 
 0.960000 0.020000 0.000000 
 0.980000 0.020000 0.000000 
 1.000000 0.020000 0.000000 
 0.000000 0.040000 0.000000 
 0.020000 0.040000 0.000000 
 0.040000 0.040000 0.000000 
 0.060000 0.040000 0.000000 
 0.080000 0.040000 0.000000 
 0.100000 0.040000 0.000000 
 0.120000 0.040000 0.000000 
 0.140000 0.040000 0.000000 
 0.160000 0.040000 0.000000 
 0.180000 0.040000 0.000000 
 0.200000 0.040000 0.000000 
 0.220000 0.040000 0.000000 
 0.240000 0.040000 0.000000 
 0.260000 0.040000 0.000000 
 0.280000 0.040000 0.000000 
 0.300000 0.040000 0.000000 
 0.320000 0.040000 0.000000 
 0.340000 0.040000 0.000000 
 0.360000 0.040000 0.000000 
 0.380000 0.040000 0.000000 
 0.400000 0.040000 0.000000 
 0.420000 0.040000 0.000000 
 0.440000 0.040000 0.000000 
 0.460000 0.040000 0.000000 
 0.480000 0.040000 0.000000 
 0.500000 0.040000 0.000000 
 0.520000 0.040000 0.000000 
 0.540000 0.040000 0.000000 
 0.560000 0.040000 0.000000 
 0.580000 0.040000 0.000000 
 0.600000 0.040000 0.000000 
 0.620000 0.040000 0.000000 
 0.640000 0.040000 0.000000 
 0.660000 0.040000 0.000000 
 0.680000 0.040000 0.000000 
 0.700000 0.040000 0.000000 
 0.720000 0.040000 0.000000 
 0.740000 0.040000 0.000000 
 0.760000 0.040000 0.000000 
 0.780000 0.040000 0.000000 
 0.800000 0.040000 0.000000 
 0.820000 0.040000 0.000000 
 0.840000 0.040000 0.000000 
 0.860000 0.040000 0.000000 
 0.880000 0.040000 0.000000 
 0.900000 0.040000 0.000000 
 0.920000 0.040000 0.000000 
 0.940000 0.040000 0.000000 
 0.960000 0.040000 0.000000 
 0.980000 0.040000 0.000000 
 1.000000 0.040000 0.000000 
 0.000000 0.060000 0.000000 
 0.020000 0.060000 0.000000 
 0.040000 0.060000 0.000000 
 0.060000 0.060000 0.000000 
 0.080000 0.060000 0.000000 
 0.100000 0.060000 0.000000 
 0.120000 0.060000 0.000000 
 0.140000 0.060000 0.000000 
 0.160000 0.060000 0.000000 
 0.180000 0.060000 0.000000 
 0.200000 0.060000 0.000000 
 0.220000 0.060000 0.000000 
 0.240000 0.060000 0.000000 
 0.260000 0.060000 0.000000 
 0.280000 0.060000 0.000000 
 0.300000 0.060000 0.000000 
 0.320000 0.060000 0.000000 
 0.340000 0.060000 0.000000 
 0.360000 0.060000 0.000000 
 0.380000 0.060000 0.000000 
 0.400000 0.060000 0.000000 
 0.420000 0.060000 0.000000 
 0.440000 0.060000 0.000000 
 0.460000 0.060000 0.000000 
 0.480000 0.060000 0.000000 
 0.500000 0.060000 0.000000 
 0.520000 0.060000 0.000000 
 0.540000 0.060000 0.000000 
 0.560000 0.060000 0.000000 
 0.580000 0.060000 0.000000 
 0.600000 0.060000 0.000000 
 0.620000 0.060000 0.000000 
 0.640000 0.060000 0.000000 
 0.660000 0.060000 0.000000 
 0.680000 0.060000 0.000000 
 0.700000 0.060000 0.000000 
 0.720000 0.060000 0.000000 
 0.740000 0.060000 0.000000 
 0.760000 0.060000 0.000000 
 0.780000 0.060000 0.000000 
 0.800000 0.060000 0.000000 
 0.820000 0.060000 0.000000 
 0.840000 0.060000 0.000000 
 0.860000 0.060000 0.000000 
 0.880000 0.060000 0.000000 
 0.900000 0.060000 0.000000 
 0.920000 0.060000 0.000000 
 0.940000 0.060000 0.000000 
 0.960000 0.060000 0.000000 
 0.980000 0.060000 0.000000 
 1.000000 0.060000 0.000000 
 0.000000 0.080000 0.000000 
 0.020000 0.080000 0.000000 
 0.040000 0.080000 0.000000 
 0.060000 0.080000 0.000000 
 0.080000 0.080000 0.000000 
 0.100000 0.080000 0.000000 
 0.120000 0.080000 0.000000 
 0.140000 0.080000 0.000000 
 0.160000 0.080000 0.000000 
 0.180000 0.080000 0.000000 
 0.200000 0.080000 0.000000 
 0.220000 0.080000 0.000000 
 0.240000 0.080000 0.000000 
 0.260000 0.080000 0.000000 
 0.280000 0.080000 0.000000 
 0.300000 0.080000 0.000000 
 0.320000 0.080000 0.000000 
 0.340000 0.080000 0.000000 
 0.360000 0.080000 0.000000 
 0.380000 0.080000 0.000000 
 0.400000 0.080000 0.000000 
 0.420000 0.080000 0.000000 
 0.440000 0.080000 0.000000 
 0.460000 0.080000 0.000000 
 0.480000 0.080000 0.000000 
 0.500000 0.080000 0.000000 
 0.520000 0.080000 0.000000 
 0.540000 0.080000 0.000000 
 0.560000 0.080000 0.000000 
 0.580000 0.080000 0.000000 
 0.600000 0.080000 0.000000 
 0.620000 0.080000 0.000000 
 0.640000 0.080000 0.000000 
 0.660000 0.080000 0.000000 
 0.680000 0.080000 0.000000 
 0.700000 0.080000 0.000000 
 0.720000 0.080000 0.000000 
 0.740000 0.080000 0.000000 
 0.760000 0.080000 0.000000 
 0.780000 0.080000 0.000000 
 0.800000 0.080000 0.000000 
 0.820000 0.080000 0.000000 
 0.840000 0.080000 0.000000 
 0.860000 0.080000 0.000000 
 0.880000 0.080000 0.000000 
 0.900000 0.080000 0.000000 
 0.920000 0.080000 0.000000 
 0.940000 0.080000 0.000000 
 0.960000 0.080000 0.000000 
 0.980000 0.080000 0.000000 
 1.000000 0.080000 0.000000 
 0.000000 0.100000 0.000000 
 0.020000 0.100000 0.000000 
 0.040000 0.100000 0.000000 
 0.060000 0.100000 0.000000 
 0.080000 0.100000 0.000000 
 0.100000 0.100000 0.000000 
 0.120000 0.100000 0.000000 
 0.140000 0.100000 0.000000 
 0.160000 0.100000 0.000000 
 0.180000 0.100000 0.000000 
 0.200000 0.100000 0.000000 
 0.220000 0.100000 0.000000 
 0.240000 0.100000 0.000000 
 0.260000 0.100000 0.000000 
 0.280000 0.100000 0.000000 
 0.300000 0.100000 0.000000 
 0.320000 0.100000 0.000000 
 0.340000 0.100000 0.000000 
 0.360000 0.100000 0.000000 
 0.380000 0.100000 0.000000 
 0.400000 0.100000 0.000000 
 0.420000 0.100000 0.000000 
 0.440000 0.100000 0.000000 
 0.460000 0.100000 0.000000 
 0.480000 0.100000 0.000000 
 0.500000 0.100000 0.000000 
 0.520000 0.100000 0.000000 
 0.540000 0.100000 0.000000 
 0.560000 0.100000 0.000000 
 0.580000 0.100000 0.000000 
 0.600000 0.100000 0.000000 
 0.620000 0.100000 0.000000 
 0.640000 0.100000 0.000000 
 0.660000 0.100000 0.000000 
 0.680000 0.100000 0.000000 
 0.700000 0.100000 0.000000 
 0.720000 0.100000 0.000000 
 0.740000 0.100000 0.000000 
 0.760000 0.100000 0.000000 
 0.780000 0.100000 0.000000 
 0.800000 0.100000 0.000000 
 0.820000 0.100000 0.000000 
 0.840000 0.100000 0.000000 
 0.860000 0.100000 0.000000 
 0.880000 0.100000 0.000000 
 0.900000 0.100000 0.000000 
 0.920000 0.100000 0.000000 
 0.940000 0.100000 0.000000 
 0.960000 0.100000 0.000000 
 0.980000 0.100000 0.000000 
 1.000000 0.100000 0.000000 
 0.000000 0.120000 0.000000 
 0.020000 0.120000 0.000000 
 0.040000 0.120000 0.000000 
 0.060000 0.120000 0.000000 
 0.080000 0.120000 0.000000 
 0.100000 0.120000 0.000000 
 0.120000 0.120000 0.000000 
 0.140000 0.120000 0.000000 
 0.160000 0.120000 0.000000 
 0.180000 0.120000 0.000000 
 0.200000 0.120000 0.000000 
 0.220000 0.120000 0.000000 
 0.240000 0.120000 0.000000 
 0.260000 0.120000 0.000000 
 0.280000 0.120000 0.000000 
 0.300000 0.120000 0.000000 
 0.320000 0.120000 0.000000 
 0.340000 0.120000 0.000000 
 0.360000 0.120000 0.000000 
 0.380000 0.120000 0.000000 
 0.400000 0.120000 0.000000 
 0.420000 0.120000 0.000000 
 0.440000 0.120000 0.000000 
 0.460000 0.120000 0.000000 
 0.480000 0.120000 0.000000 
 0.500000 0.120000 0.000000 
 0.520000 0.120000 0.000000 
 0.540000 0.120000 0.000000 
 0.560000 0.120000 0.000000 
 0.580000 0.120000 0.000000 
 0.600000 0.120000 0.000000 
[...]
<PointData  Scalars="U"> 
<DataArray  type="Float64"  Name="U"  format="ascii"> 
 0.000000e+00
 0.000000e+00
 0.000000e+00
 0.000000e+00
 0.000000e+00
 0.000000e+00
 0.000000e+00
 0.000000e+00
 0.000000e+00
 0.000000e+00
 0.000000e+00
 0.000000e+00
 0.000000e+00
 0.000000e+00
 0.000000e+00
 0.000000e+00
 0.000000e+00
 0.000000e+00
 0.000000e+00
 0.000000e+00
 0.000000e+00
 0.000000e+00
 0.000000e+00
 0.000000e+00
 0.000000e+00
 0.000000e+00
 0.000000e+00
 0.000000e+00
 0.000000e+00
 0.000000e+00
 0.000000e+00
 0.000000e+00
 0.000000e+00
 0.000000e+00
 0.000000e+00
 0.000000e+00
 0.000000e+00
 0.000000e+00
 0.000000e+00
 0.000000e+00
 0.000000e+00
 0.000000e+00
 0.000000e+00
 0.000000e+00
 0.000000e+00
 0.000000e+00
 0.000000e+00
 0.000000e+00
 0.000000e+00
 0.000000e+00
 0.000000e+00
 0.000000e+00
 -4.624350e-09
 -1.253527e-08
 -2.811327e-08
 -5.578196e-08
 -8.705634e-08
 -7.670701e-08
 4.509061e-09
 7.855590e-08
 8.135037e-08
 5.067997e-08
 2.405886e-08
 8.260569e-09
 1.020400e-10
 -3.457034e-09
 -4.048548e-09
 -2.542425e-09
 1.919732e-10
 2.780575e-09
 3.169425e-09
 -1.398146e-09
 -1.458213e-08
 -4.102887e-08
 -8.331006e-08
 -1.251338e-07
 -1.086463e-07
 -5.926957e-09
 7.420840e-08
 2.692269e-08
 -1.564103e-07
 -3.554548e-07
 -3.057191e-07
 -9.606878e-07
 3.610684e-07
 9.741760e-07
 1.549949e-07
 -3.192831e-08
 -2.869854e-08
 7.583379e-09
 6.166424e-09
 -2.571944e-08
 -4.933755e-08
 -4.147761e-08
 -8.654461e-09
 2.943991e-08
 5.248208e-08
 5.148907e-08
 3.652533e-08
 2.051619e-08
 8.063861e-09
 0.000000e+00
 0.000000e+00
 -6.176868e-09
 -1.763843e-08
 -4.302439e-08
 -9.926040e-08
 -2.148949e-07
 -2.523309e-07
 2.026757e-08
 2.540463e-07
 1.912273e-07
 9.110831e-08
 3.630198e-08
 9.098721e-09
 -4.129067e-09
 -9.755794e-09
 -1.020241e-08
 -6.407681e-09
 4.109369e-10
 7.650799e-09
 1.115176e-08
 5.600934e-09
 -1.586761e-08
 -6.406491e-08
 -1.568814e-07
 -3.099598e-07
 -3.381301e-07
 1.379735e-08
 3.021532e-07
 1.777749e-07
 -1.459913e-07
 -1.407888e-06
 -1.149701e-06
 9.902127e-07
 1.858703e-05
 1.624155e-07
 -1.507587e-07
 -2.284724e-07
 -7.910357e-08
 6.829565e-08
 4.771701e-08
 -6.329095e-08
 -1.362575e-07
 -1.096418e-07
 -2.275935e-08
 7.574080e-08
 1.332840e-07
 1.170491e-07
 7.227140e-08
 3.635088e-08
 1.429221e-08
 0.000000e+00
 0.000000e+00
 -2.955302e-09
 -1.012975e-08
 -2.961060e-08
 -8.354999e-08
 -2.514229e-07
 -1.321576e-06
 -7.672688e-09
 8.975385e-07
 2.523828e-07
 8.222022e-08
 2.265627e-08
 -2.809768e-09
 -1.533762e-08
 -2.100448e-08
 -2.065978e-08
 -1.355708e-08
 -7.337823e-11
 1.609081e-08
 2.799160e-08
 2.791103e-08
 8.251650e-09
 -4.365850e-08
 -1.619120e-07
 -4.508203e-07
 -1.561465e-06
 1.770746e-08
 1.135303e-06
 4.000280e-07
 1.699474e-07
 2.083155e-07
 1.790575e-05
 1.855108e-05
 6.561748e-08
 -1.474557e-06
 -7.435993e-07
 -6.975544e-07
 -1.147649e-07
 3.543885e-07
 1.808686e-07
 -1.500713e-07
 -3.461913e-07
 -2.340357e-07
 -5.053257e-08
 1.632385e-07
 3.087090e-07
 2.055878e-07
 9.273643e-08
 3.718812e-08
 1.262021e-08
 0.000000e+00
 0.000000e+00
 3.959403e-09
 7.921243e-09
 1.177924e-08
 1.646516e-08
 3.045520e-08
 -1.734229e-09
 1.745195e-05
 -1.283790e-08
 1.031360e-08
 -9.858567e-09
 -1.859385e-08
 -2.569735e-08
 -3.265451e-08
 -3.800668e-08
 -3.806419e-08
 -2.771276e-08
 -3.871459e-09
 2.870921e-08
 5.701210e-08
 6.920821e-08
 6.171472e-08
 3.389021e-08
 -2.679535e-08
 -1.854830e-07
 -1.285987e-06
 1.748126e-05
 9.005316e-07
 2.182031e-07
 1.389556e-07
 1.172293e-06
 1.462655e-06
 -5.957658e-07
 -1.341676e-06
 -6.986772e-07
 -8.954178e-07
 -2.900769e-06
 -2.087189e-07
 1.622935e-06
 2.985378e-07
 -2.128552e-07
 -1.445549e-06
 -3.410502e-07
 -5.198177e-07
 1.511303e-07
 9.005400e-07
 2.196579e-07
 5.305139e-08
 9.275826e-09
 2.140692e-10
 0.000000e+00
 0.000000e+00
 1.082471e-08
 2.615520e-08
 5.310970e-08
 1.115672e-07
 2.762204e-07
 9.112161e-07
 -6.673257e-09
 -1.332419e-06
 -2.710124e-07
 -1.090972e-07
 -6.056902e-08
 -4.831549e-08
 -5.120220e-08
 -5.998509e-08
 -6.610082e-08
 -5.681703e-08
 -1.818218e-08
 4.589054e-08
 1.039602e-07
 1.308726e-07
 1.339190e-07
 1.380929e-07
 1.801303e-07
 3.539769e-07
 9.720872e-07
 1.753381e-05
 -1.251622e-06
 -2.734867e-07
 -1.187013e-06
 -7.161351e-07
 1.348689e-06
 1.052655e-06
 -1.342094e-07
 -3.438957e-07
 -2.725001e-07
 -2.634996e-07
 3.470958e-05
 -1.689631e-07
 -8.462341e-08
 -8.989869e-08
 -1.259013e-07
 1.733369e-05
 -1.688561e-07
 1.731132e-05
 -1.545128e-07
 -1.026184e-07
 -8.001834e-08
 -4.573690e-08
 -1.868850e-08
 0.000000e+00
 0.000000e+00
 1.345657e-08
 3.428833e-08
 6.933283e-08
 1.281814e-07
 2.238705e-07
 2.730593e-07
 2.121992e-08
 -2.665055e-07
 -2.370809e-07
 -1.245798e-07
 -7.250446e-08
 -5.720062e-08
 -6.388035e-08
 -8.379749e-08
 -1.086741e-07
 -1.183378e-07
 -6.439665e-08
 7.047612e-08
 1.892133e-07
 2.188571e-07
 2.057333e-07
 2.107714e-07
 2.863614e-07
 5.368849e-07
 1.258148e-06
 1.692966e-07
 -1.347290e-06
 -1.554578e-07
 1.749600e-07
 1.772753e-05
 1.765472e-05
 2.081528e-08
 -1.140445e-07
 -8.938083e-08
 2.522941e-07
 1.574234e-06
 -1.936551e-07
 -2.765485e-06
 -5.383799e-07
 -8.914021e-09
 7.832599e-07
 5.212397e-08
 -6.427306e-07
 -5.025057e-07
 -1.645907e-06
 -4.785498e-07
 -2.196940e-07
 -9.075913e-08
 -2.754885e-08
 0.000000e+00
 0.000000e+00
 8.492047e-09
 2.855578e-08
 6.333862e-08
 1.047064e-07
 1.330509e-07
 1.078727e-07
 1.871801e-09
 -1.026147e-07
 -1.173841e-07
 -7.955935e-08
 -4.966210e-08
 -4.507108e-08
 -6.349350e-08
 -1.014601e-07
 -1.591547e-07
 -2.456568e-07
 -2.211394e-07
 1.173833e-07
 3.925220e-07
 3.468568e-07
 2.560376e-07
 2.205026e-07
 2.425800e-07
 3.331892e-07
 4.161995e-07
 2.307759e-07
 4.750083e-08
 3.242346e-07
 1.268306e-06
 1.051113e-06
 -1.204602e-06
 -1.529704e-06
 -3.480672e-07
 -8.991105e-08
 1.493890e-07
 2.962217e-07
 -1.339029e-07
 -6.078915e-07
 -4.318617e-07
 -7.064087e-08
 1.267440e-07
 -1.749358e-08
 -2.830692e-07
 -5.395670e-07
 -7.094774e-07
 -5.404350e-07
 -2.590344e-07
 -7.164270e-08
 1.048278e-09
 0.000000e+00
 0.000000e+00
 -9.623174e-09
 5.995917e-09
 4.948972e-08
 8.996785e-08
 9.327997e-08
 5.089004e-08
 -1.640385e-08
 -6.030424e-08
 -5.074173e-08
 -1.630644e-08
 8.698389e-10
 -1.009499e-08
 -4.410180e-08
 -1.007238e-07
 -1.838669e-07
 -3.216039e-07
 -1.275256e-06
 1.517154e-07
 1.090475e-06
 4.336810e-07
 2.473235e-07
 1.757773e-07
 1.299678e-07
 4.808314e-08
 1.431674e-08
 2.240066e-07
 4.289960e-07
 4.986384e-07
 5.920752e-07
 3.925456e-07
 -1.346349e-07
 -3.988897e-07
 -2.771359e-07
 -1.173749e-07
 -3.759897e-08
 -6.372070e-08
 -2.006037e-07
 -2.660380e-07
 -1.693729e-07
 -5.165666e-08
 -2.557114e-08
 -1.348902e-07
 -3.417973e-07
 -5.764248e-07
 -7.083295e-07
 -5.617793e-07
 -1.994049e-07
 7.510716e-08
 1.083459e-07
 0.000000e+00
 0.000000e+00
 -5.679692e-08
 -5.178344e-08
 3.832904e-08
 1.177899e-07
 1.035744e-07
 2.529758e-08
 -6.088199e-08
 -8.493499e-08
 -1.090926e-08
 7.189067e-08
 8.198891e-08
 4.643506e-08
 -3.261247e-09
 -7.164571e-08
 -1.842688e-07
 -1.955696e-07
 6.721360e-08
 1.778065e-05
 2.760338e-07
 2.154577e-07
 1.485758e-07
 1.073667e-07
 4.771108e-08
 -1.183086e-07
 -1.181489e-06
 1.468090e-07
 1.080997e-06
 4.735284e-07
 3.006274e-07
 1.521583e-07
 1.040230e-08
 -6.409189e-08
 -7.992948e-08
 -8.196645e-08
 -1.224411e-07
 -2.597330e-07
 -3.606027e-07
 -1.436139e-07
 9.153450e-08
 6.677615e-08
 -2.431512e-08
 -1.535924e-07
 -3.633468e-07
 -6.943693e-07
 -1.036350e-06
 -8.560904e-07
 -1.368508e-08
 5.176363e-07
 3.540758e-07
 0.000000e+00
 0.000000e+00
 -1.678608e-07
 -2.248646e-07
 4.167185e-08
 2.668094e-07
 1.766344e-07
 1.181350e-08
 -1.691428e-07
 -2.393026e-07
 2.318120e-08
 2.601475e-07
 2.048211e-07
 1.099655e-07
 5.271959e-08
 1.999849e-09
 -1.126490e-07
 -1.010124e-06
 9.555129e-07
 9.629314e-07
 -9.892927e-07
 -8.347982e-08
 2.807278e-08
 5.265371e-08
 4.309885e-08
 2.920808e-08
 5.723929e-09
 1.754143e-05
 1.606873e-07
 1.824520e-07
 3.794897e-08
 -8.393143e-08
 6.920208e-08
 2.077871e-07
 1.032500e-07
 -1.033524e-08
 -1.075213e-07
 -3.101111e-07
 -1.421435e-06
 -1.373101e-07
 7.754657e-07
 1.686744e-07
 1.805294e-08
 -9.109224e-08
 -2.679545e-07
 -6.336751e-07
 -2.130117e-06
 -3.066172e-06
 4.613210e-07
 1.918627e-06
 6.459633e-07
 0.000000e+00
 0.000000e+00
 -2.185119e-07
 -1.304739e-06
 3.867010e-09
 9.022731e-07
 2.369402e-07
 1.077812e-08
 -2.176317e-07
 -1.309986e-06
 2.350603e-10
 9.126386e-07
 2.815098e-07
 1.310104e-07
 9.912691e-08
 1.172681e-07
 1.856284e-07
 2.573579e-07
 1.777701e-05
 7.970636e-08
 -1.679358e-07
 -1.452000e-07
 -2.908800e-08
 2.918454e-08
 5.498386e-08
 1.055073e-07
 6.855359e-07
 1.505489e-08
 -1.069506e-06
 -2.981344e-08
 -6.581770e-08
 -1.170215e-06
 5.311438e-08
 8.833672e-07
 2.052454e-07
 3.662023e-08
 -1.110947e-08
 -2.936006e-08
 -1.025379e-07
 1.731293e-05
 -1.346364e-07
 -1.315673e-08
 5.235202e-08
 3.855567e-08
 -2.678197e-08
 -9.009871e-08
 -1.835312e-07
 1.705047e-05
 3.347448e-05
 -7.192265e-08
 8.456849e-07
 0.000000e+00
 0.000000e+00
 2.083546e-08
 -4.982182e-09
 1.745520e-05
 -3.928663e-09
 2.386563e-08
 9.904874e-09
 2.009772e-08
 -8.704121e-09
 1.745442e-05
 4.881983e-09
 4.991832e-08
 6.164837e-08
 1.037474e-07
 1.899427e-07
 3.947521e-07
 1.070500e-06
 1.508307e-07
 -1.256801e-06
 -2.837310e-07
 -1.272981e-07
 -2.784236e-08
 3.950438e-08
 6.814580e-08
 -5.435034e-09
 -1.063994e-06
 -1.036570e-07
 4.834602e-07
 1.387655e-07
 3.113926e-07
 1.824401e-07
 1.750060e-05
 -4.251190e-08
 -3.358539e-08
 -8.640526e-09
 6.962071e-08
 2.294593e-07
 8.159974e-07
 -2.119793e-07
 -1.565646e-06
 -2.171348e-07
 1.986390e-07
 2.182296e-07
 2.115464e-07
 4.027028e-07
 1.316359e-06
 1.706744e-06
 -1.364296e-06
 1.462809e-05
 -4.822954e-07
 0.000000e+00
 0.000000e+00
 2.236333e-07
 8.875580e-07
 -1.073253e-08
 -1.317904e-06
 -2.290702e-07
 -6.552919e-09
 2.151050e-07
 8.796859e-07
 -1.532479e-08
 -1.318302e-06
 -2.301442e-07
 -3.189791e-08
 7.136209e-08
 1.702463e-07
 2.986820e-07
 3.711577e-07
 1.189521e-07
 -1.969076e-07
 -1.969634e-07
 -8.289256e-08
 6.688557e-09
 8.283362e-08
 1.482169e-07
 1.963101e-07
 1.120173e-07
 1.731608e-05
 -1.303584e-06
 5.314285e-08
 1.108155e-06
 1.087232e-06
 -2.937445e-08
 -1.442962e-06
 -3.755885e-07
 -9.608459e-08
 1.023582e-07
 2.329687e-07
 2.435674e-07
 -1.639575e-07
 -1.509926e-06
 -1.540371e-07
 8.863196e-07
 3.423525e-07
 2.883275e-07
 4.102065e-07
 5.839901e-07
 5.836420e-07
 7.485948e-07
 -4.130613e-07
 -1.514005e-06
 0.000000e+00
 0.000000e+00
 1.518240e-07
 2.367786e-07
 1.117431e-08
 -2.533152e-07
 -1.934697e-07
 -2.448763e-08
 1.326396e-07
 2.219056e-07
 1.301714e-09
 -2.596662e-07
 -2.040006e-07
 -5.928601e-08
 3.805567e-08
 1.143312e-07
 1.710980e-07
 1.698502e-07
 7.453702e-08
 -3.631217e-08
 -6.195898e-08
 -1.689726e-08
 5.356204e-08
 1.358192e-07
 2.418910e-07
 4.377268e-07
 1.076722e-06
 1.445784e-07
 -1.238719e-06
 1.729279e-05
 6.222643e-08
 1.598011e-07
 -1.470027e-07
 -5.453739e-07
 -5.411944e-07
 -1.266048e-07
 2.173697e-07
 2.574520e-07
 2.250394e-07
 1.562246e-07
 3.391146e-08
 1.747330e-05
 5.546761e-08
 1.489799e-07
 2.139705e-07
 2.843345e-07
 2.248351e-07
 -8.541491e-07
 2.552209e-07
 7.451873e-07
 -1.013210e-07
 0.000000e+00
 0.000000e+00
 5.987946e-08
 6.775679e-08
 -1.046030e-08
 -9.634061e-08
 -9.654712e-08
 -3.491634e-08
 2.995704e-08
 4.465606e-08
 -2.475826e-08
 -1.019644e-07
 -9.790302e-08
 -3.984929e-08
 2.173328e-08
 7.005219e-08
 9.703822e-08
 9.089706e-08
 5.157177e-08
 9.345897e-09
 1.309626e-10
 3.144226e-08
 9.158771e-08
 1.710649e-07
 2.724839e-07
 4.106235e-07
 5.196304e-07
 4.222904e-07
 7.580170e-07
 -1.330841e-07
 -1.347772e-06
 -2.813135e-07
 -2.528899e-07
 -4.649944e-07
 -1.531679e-06
 -1.695288e-07
 7.972324e-07
 2.582863e-07
 2.712254e-07
 4.596119e-07
 1.067871e-06
 1.200845e-07
 -1.200058e-06
 -9.986062e-08
 1.239559e-07
 2.443212e-07
 3.170824e-07
 2.668342e-07
 1.761189e-05
 -5.750670e-09
 -4.975084e-08
 0.000000e+00
 0.000000e+00
 1.749728e-08
 1.249827e-08
 -2.014399e-08
 -5.495370e-08
 -6.326776e-08
 -4.620834e-08
 -2.508473e-08
 -2.124733e-08
 -3.916379e-08
 -5.547574e-08
 -4.621152e-08
 -1.552940e-08
 1.911120e-08
 4.567076e-08
 5.768508e-08
 5.198309e-08
 3.284825e-08
 1.540135e-08
 1.832398e-08
 5.181468e-08
 1.123739e-07
 1.872451e-07
 2.649282e-07
 3.348563e-07
 3.701392e-07
 3.563439e-07
 2.900540e-07
 4.464855e-09
 -2.718980e-07
 -2.495586e-07
 -1.745832e-07
 -1.510914e-07
 -1.796371e-07
 1.727758e-05
 -2.198867e-07
 -1.420712e-07
 2.078498e-07
 5.497533e-07
 5.451425e-07
 2.098039e-07
 -1.031451e-07
 -5.676721e-08
 1.053875e-07
 2.472954e-07
 4.515587e-07
 1.080638e-06
 1.165619e-07
 -1.265368e-06
 -2.199707e-07
 0.000000e+00
 0.000000e+00
 2.495095e-10
 -8.320073e-09
 -2.686334e-08
 -4.685957e-08
 -5.875555e-08
 -6.137972e-08
 -6.022701e-08
 -5.915214e-08
 -5.493995e-08
 -4.113014e-08
 -1.803443e-08
 6.483802e-09
 2.547949e-08
 3.612068e-08
 3.728764e-08
 2.871271e-08
 1.319186e-08
 -5.828861e-10
 3.391447e-09
 4.332058e-08
 1.193407e-07
 2.016970e-07
 2.612340e-07
 2.919007e-07
 2.934120e-07
 2.609992e-07
 1.818880e-07
 4.801853e-08
 -6.853031e-08
 -9.266094e-08
 -4.015759e-08
 1.220954e-07
 7.580418e-07
 -1.583776e-07
 -1.562322e-06
 -1.476446e-06
 7.322600e-08
 1.073677e-06
 4.376190e-07
 1.892893e-07
 5.182815e-08
 4.169317e-08
 1.126302e-07
 2.131397e-07
 3.346108e-07
 3.883718e-07
 1.225381e-07
 -1.836709e-07
 -1.540462e-07
 0.000000e+00
 0.000000e+00
 -6.766301e-09
 -1.715172e-08
 -3.191932e-08
 -4.868791e-08
 -6.481823e-08
 -7.996001e-08
 -9.382008e-08
 -9.937772e-08
 -8.180620e-08
 -3.768917e-08
 9.135820e-09
 3.489386e-08
 4.040243e-08
 3.608218e-08
 2.713459e-08
 1.340464e-08
 -6.882748e-09
 -3.333313e-08
 -5.055334e-08
 -8.087320e-09
 1.204293e-07
 2.445574e-07
 2.867010e-07
 2.771125e-07
 2.497874e-07
 2.086212e-07
 1.489421e-07
 7.627477e-08
 1.688317e-08
 -3.158327e-09
 2.199870e-08
 9.325682e-08
 1.339302e-07
 -6.428308e-08
 -2.046811e-07
 -8.010675e-08
 1.753290e-05
 1.183621e-07
 1.384714e-07
 8.814065e-08
 5.574997e-08
 6.103637e-08
 1.009607e-07
 1.563159e-07
 2.014783e-07
 1.897720e-07
 8.760222e-08
 -2.307361e-08
 -4.447922e-08
 0.000000e+00
 0.000000e+00
 -9.608363e-09
 -2.096364e-08
 -3.493495e-08
 -5.169139e-08
 -7.205041e-08
 -9.861832e-08
 -1.336219e-07
 -1.645050e-07
 -1.416320e-07
 -3.678149e-08
 6.315102e-08
 8.485913e-08
 6.375642e-08
 3.973715e-08
 2.154055e-08
 4.861340e-09
 -1.923088e-08
 -6.677609e-08
 -1.648347e-07
 -1.755735e-07
 1.298640e-07
 3.964432e-07
 3.596278e-07
 2.738516e-07
 2.190135e-07
 1.763590e-07
 1.337600e-07
 9.129013e-08
 5.784176e-08
 4.130419e-08
 3.757909e-08
 1.915535e-08
 -7.904545e-08
 -1.361495e-07
 2.254431e-07
 1.102428e-06
 1.780540e-07
 -1.199836e-06
 -1.691658e-07
 -2.685816e-08
 1.592168e-08
 4.316779e-08
 7.406075e-08
 1.050405e-07
 1.225390e-07
 1.100632e-07
 6.569049e-08
 1.757215e-08
 -3.751538e-09
 0.000000e+00
 0.000000e+00
 -1.052332e-08
 -2.200251e-08
 -3.527361e-08
 -5.146505e-08
 -7.326331e-08
 -1.073302e-07
 -1.686148e-07
 -2.835364e-07
 -3.131868e-07
 -2.691841e-08
 2.225817e-07
 1.735536e-07
 8.364315e-08
 3.603143e-08
 1.392050e-08
 2.678364e-09
 -1.051623e-08
 -5.011256e-08
 -1.975244e-07
 -1.243452e-06
 9.555134e-08
 1.023528e-06
 3.958732e-07
 2.358817e-07
 1.781293e-07
 1.461445e-07
 1.201646e-07
 9.713681e-08
 7.975925e-08
 6.963496e-08
 5.985281e-08
 2.260417e-08
 -1.302533e-07
 -1.179218e-06
 1.997605e-07
 1.153705e-06
 2.788711e-07
 -1.549919e-07
 -1.693303e-07
 -7.128092e-08
 -1.651680e-08
 1.836634e-08
 4.562125e-08
 6.633560e-08
 7.574443e-08
 6.905077e-08
 4.823021e-08
 2.418948e-08
 7.870410e-09
 0.000000e+00
 0.000000e+00
 -1.044636e-08
 -2.127386e-08
 -3.292279e-08
 -4.624214e-08
 -6.351097e-08
 -9.128772e-08
 -1.502845e-07
 -3.187940e-07
 -1.384787e-06
 -6.282873e-08
 8.524275e-07
 2.175296e-07
 5.728258e-08
 8.241156e-09
 -4.118732e-09
 1.043886e-09
 1.813836e-08
 4.465316e-08
 8.433040e-08
 7.681689e-08
 1.755119e-05
 1.021685e-07
 1.364018e-07
 1.232449e-07
 1.181943e-07
 1.121955e-07
 1.045289e-07
 9.716540e-08
 9.308814e-08
 9.461863e-08
 1.020506e-07
 1.145026e-07
 1.384694e-07
 1.195189e-07
 1.758593e-05
 9.928682e-08
 2.994406e-08
 -8.463457e-08
 -1.056179e-07
 -7.105051e-08
 -3.173345e-08
 -6.897847e-10
 2.274812e-08
 3.886319e-08
 4.628673e-08
 4.407340e-08
 3.405415e-08
 2.095583e-08
 9.282117e-09
 0.000000e+00
 0.000000e+00
 -9.990145e-09
 -1.977547e-08
 -2.910151e-08
 -3.764824e-08
 -4.501629e-08
 -5.053813e-08
 -5.220468e-08
 -4.068025e-08
 -7.138838e-08
 1.738686e-05
 -7.157578e-08
 -4.110496e-08
 -5.269277e-08
 -4.971276e-08
 -3.797786e-08
 -1.228241e-08
 3.778897e-08
 1.306047e-07
 3.314712e-07
 9.945672e-07
 9.364528e-08
 -1.223646e-06
 -1.582462e-07
 6.776701e-09
 6.012300e-08
 8.031237e-08
 8.877223e-08
 9.379399e-08
 1.004206e-07
 1.133418e-07
 1.398780e-07
 2.000241e-07
 3.679807e-07
 1.005648e-06
 8.288468e-08
 -1.267243e-06
 -2.518095e-07
 -1.327774e-07
 -9.665013e-08
 -6.664524e-08
 -3.740313e-08
 -1.246825e-08
 6.851930e-09
 2.014229e-08
 2.699531e-08
 2.750046e-08
 2.292971e-08
 1.558567e-08
 7.640561e-09
 0.000000e+00
 0.000000e+00
 -9.729211e-09
 -1.872485e-08
 -2.604968e-08
 -3.020458e-08
 -2.822319e-08
 -1.290922e-08
 3.692767e-08
 1.971982e-07
 8.319606e-07
 -8.342289e-08
 -1.405546e-06
 -3.400067e-07
 -1.726143e-07
 -1.150217e-07
 -8.500004e-08
 -4.936472e-08
 1.937103e-08
 1.361202e-07
 2.901206e-07
 3.733416e-07
 1.312747e-07
 -1.596174e-07
 -1.369151e-07
 -2.785609e-08
 2.879064e-08
 5.857979e-08
 7.605149e-08
 8.875687e-08
 1.017511e-07
 1.199703e-07
 1.503956e-07
 2.052192e-07
 2.992445e-07
 3.468283e-07
 8.713356e-08
 -2.205020e-07
 -2.206435e-07
 -1.341276e-07
 -9.034382e-08
 -6.165252e-08
 -3.818444e-08
 -1.854430e-08
 -3.053988e-09
 7.936792e-09
 1.427613e-08
 1.621039e-08
 1.455704e-08
 1.056524e-08
 5.454751e-09
 0.000000e+00
 0.000000e+00
 -1.017132e-08
 -1.926348e-08
 -2.596270e-08
 -2.833177e-08
 -2.299972e-08
 -3.426371e-09
 4.307629e-08
 1.325559e-07
 1.814247e-07
 -6.810387e-08
 -3.542681e-07
 -3.248015e-07
 -2.119992e-07
 -1.577844e-07
 -1.373187e-07
 -1.214893e-07
 -5.218405e-08
 1.011458e-07
 2.403598e-07
 2.509225e-07
 1.338150e-07
 5.579011e-09
 -3.339876e-08
 -1.053825e-08
 2.194408e-08
 4.809876e-08
 6.774355e-08
 8.341489e-08
 9.815515e-08
 1.152597e-07
 1.379591e-07
 1.671809e-07
 1.911858e-07
 1.671805e-07
 5.768659e-08
 -6.383819e-08
 -1.071039e-07
 -9.483973e-08
 -7.256989e-08
 -5.261376e-08
 -3.527812e-08
 -2.044931e-08
 -8.432808e-09
 4.490507e-10
 6.067458e-09
 8.590973e-09
 8.516822e-09
 6.575029e-09
 3.527778e-09
 0.000000e+00
 0.000000e+00
 -1.165727e-08
 -2.210168e-08
 -2.999130e-08
 -3.367796e-08
 -3.099136e-08
 -1.931179e-08
 2.337229e-09
 2.297090e-08
 1.212293e-09
 -9.875150e-08
 -2.029669e-07
 -2.241765e-07
 -1.931008e-07
 -1.675748e-07
 -1.773162e-07
 -2.480519e-07
 -2.391628e-07
 7.815630e-08
 3.427789e-07
 2.797068e-07
 1.453823e-07
 5.023488e-08
 7.703224e-09
 5.947821e-09
 2.310812e-08
 4.437303e-08
 6.346321e-08
 7.904787e-08
 9.221832e-08
 1.047520e-07
 1.174824e-07
 1.279666e-07
 1.271733e-07
 1.005850e-07
 4.491611e-08
 -1.474744e-08
 -4.950306e-08
 -5.740312e-08
 -5.148640e-08
 -4.107966e-08
 -2.993995e-08
 -1.953600e-08
 -1.064289e-08
 -3.724119e-09
 1.012472e-09
 3.611608e-09
 4.348733e-09
 3.662106e-09
 2.052273e-09
 0.000000e+00
 0.000000e+00
 -1.433604e-08
 -2.744569e-08
 -3.813262e-08
 -4.528534e-08
 -4.806499e-08
 -4.656592e-08
 -4.366173e-08
 -4.811370e-08
 -7.338817e-08
 -1.211162e-07
 -1.648995e-07
 -1.769340e-07
 -1.611500e-07
 -1.428939e-07
 -1.566469e-07
 -2.857879e-07
 -1.319864e-06
 2.398350e-08
 9.464993e-07
 3.006377e-07
 1.145764e-07
 3.717520e-08
 6.345862e-09
 5.329325e-09
 2.165554e-08
 4.359068e-08
 6.307426e-08
 7.720506e-08
 8.677856e-08
 9.355236e-08
 9.809671e-08
 9.855726e-08
 9.051380e-08
 6.954291e-08
 3.706323e-08
 3.087166e-09
 -2.124272e-08
 -3.248189e-08
 -3.390151e-08
 -2.997587e-08
 -2.377971e-08
 -1.706601e-08
 -1.083684e-08
 -5.672404e-09
 -1.865121e-09
 5.225101e-10
 1.614243e-09
 1.667041e-09
 1.010963e-09
 0.000000e+00
 0.000000e+00
 -1.824588e-08
 -3.522383e-08
 -4.984258e-08