<VTKFile type="UnstructuredGrid"  version="0.1"   >
<UnstructuredGrid>  
<Piece  NumberOfPoints="     2601"  NumberOfCells="     5000">  
<Points>  
<DataArray  type="Float64"  NumberOfComponents="3"  format="ascii">  
 0.000000 0.000000 0.000000 
 0.020000 0.000000 0.000000 
 0.040000 0.000000 0.000000 
 0.060000 0.000000 0.000000 
 0.080000 0.000000 0.000000 
 0.100000 0.000000 0.000000 
 0.120000 0.000000 0.000000 
 0.140000 0.000000 0.000000 
 0.160000 0.000000 0.000000 
 0.180000 0.000000 0.000000 
 0.200000 0.000000 0.000000 
 0.220000 0.000000 0.000000 
 0.240000 0.000000 0.000000 
 0.260000 0.000000 0.000000 
 0.280000 0.000000 0.000000 
 0.300000 0.000000 0.000000 
 0.320000 0.000000 0.000000 
 0.340000 0.000000 0.000000 
 0.360000 0.000000 0.000000 
 0.380000 0.000000 0.000000 
 0.400000 0.000000 0.000000 
 0.420000 0.000000 0.000000 
 0.440000 0.000000 0.000000 
 0.460000 0.000000 0.000000 
 0.480000 0.000000 0.000000 
 0.500000 0.000000 0.000000 
 0.520000 0.000000 0.000000 
 0.540000 0.000000 0.000000 
 0.560000 0.000000 0.000000 
 0.580000 0.000000 0.000000 
 0.600000 0.000000 0.000000 
 0.620000 0.000000 0.000000 
 0.640000 0.000000 0.000000 
 0.660000 0.000000 0.000000 
 0.680000 0.000000 0.000000 
 0.700000 0.000000 0.000000 
 0.720000 0.000000 0.000000 
 0.740000 0.000000 0.000000 
 0.760000 0.000000 0.000000 
 0.780000 0.000000 0.000000 
 0.800000 0.000000 0.000000 
 0.820000 0.000000 0.000000 
 0.840000 0.000000 0.000000 
 0.860000 0.000000 0.000000 
 0.880000 0.000000 0.000000 
 0.900000 0.000000 0.000000 
 0.920000 0.000000 0.000000 
 0.940000 0.000000 0.000000 
 0.960000 0.000000 0.000000 
 0.980000 0.000000 0.000000 
 1.000000 0.000000 0.000000 
 0.000000 0.020000 0.000000 
 0.020000 0.020000 0.000000 
 0.040000 0.020000 0.000000 
 0.060000 0.020000 0.000000 
 0.080000 0.020000 0.000000 
 0.100000 0.020000 0.000000 
 0.120000 0.020000 0.000000 
 0.140000 0.020000 0.000000 
 0.160000 0.020000 0.000000 
 0.180000 0.020000 0.000000 
 0.200000 0.020000 0.000000 
 0.220000 0.020000 0.000000 
 0.240000 0.020000 0.000000 
 0.260000 0.020000 0.000000 
 0.280000 0.020000 0.000000 
 0.300000 0.020000 0.000000 
 0.320000 0.020000 0.000000 
 0.340000 0.020000 0.000000 
 0.360000 0.020000 0.000000 
 0.380000 0.020000 0.000000 
 0.400000 0.020000 0.000000 
 0.420000 0.020000 0.000000 
 0.440000 0.020000 0.000000 
 0.460000 0.020000 0.000000 
 0.480000 0.020000 0.000000 
 0.500000 0.020000 0.000000 
 0.520000 0.020000 0.000000 
 0.540000 0.020000 0.000000 
 0.560000 0.020000 0.000000 
 0.580000 0.020000 0.000000 
 0.600000 0.020000 0.000000 
 0.620000 0.020000 0.000000 
 0.640000 0.020000 0.000000 
 0.660000 0.020000 0.000000 
 0.680000 0.020000 0.000000 
 0.700000 0.020000 0.000000 
 0.720000 0.020000 0.000000 
 0.740000 0.020000 0.000000 
 0.760000 0.020000 0.000000 
 0.780000 0.020000 0.000000 
 0.800000 0.020000 0.000000 
 0.820000 0.020000 0.000000 
 0.840000 0.020000 0.000000 
 0.860000 0.020000 0.000000 
 0.880000 0.020000 0.000000 
 0.900000 0.020000 0.000000 
 0.920000 0.020000 0.000000 
 0.940000 0.020000 0.000000 
 0.960000 0.020000 0.000000 
 0.980000 0.020000 0.000000 
 1.000000 0.020000 0.000000 
 0.000000 0.040000 0.000000 
 0.020000 0.040000 0.000000 
 0.040000 0.040000 0.000000 
 0.060000 0.040000 0.000000 
 0.080000 0.040000 0.000000 
 0.100000 0.040000 0.000000 
 0.120000 0.040000 0.000000 
 0.140000 0.040000 0.000000 
 0.160000 0.040000 0.000000 
 0.180000 0.040000 0.000000 
 0.200000 0.040000 0.000000 
 0.220000 0.040000 0.000000 
 0.240000 0.040000 0.000000 
 0.260000 0.040000 0.000000 
 0.280000 0.040000 0.000000 
 0.300000 0.040000 0.000000 
 0.320000 0.040000 0.000000 
 0.340000 0.040000 0.000000 
 0.360000 0.040000 0.000000 
 0.380000 0.040000 0.000000 
 0.400000 0.040000 0.000000 
 0.420000 0.040000 0.000000 
 0.440000 0.040000 0.000000 
 0.460000 0.040000 0.000000 
 0.480000 0.040000 0.000000 
 0.500000 0.040000 0.000000 
 0.520000 0.040000 0.000000 
 0.540000 0.040000 0.000000 
 0.560000 0.040000 0.000000 
 0.580000 0.040000 0.000000 
 0.600000 0.040000 0.000000 
 0.620000 0.040000 0.000000 
 0.640000 0.040000 0.000000 
 0.660000 0.040000 0.000000 
 0.680000 0.040000 0.000000 
 0.700000 0.040000 0.000000 
 0.720000 0.040000 0.000000 
 0.740000 0.040000 0.000000 
 0.760000 0.040000 0.000000 
 0.780000 0.040000 0.000000 
 0.800000 0.040000 0.000000 
 0.820000 0.040000 0.000000 
 0.840000 0.040000 0.000000 
 0.860000 0.040000 0.000000 
 0.880000 0.040000 0.000000 
 0.900000 0.040000 0.000000 
 0.920000 0.040000 0.000000 
 0.940000 0.040000 0.000000 
 0.960000 0.040000 0.000000 
 0.980000 0.040000 0.000000 
 1.000000 0.040000 0.000000 
 0.000000 0.060000 0.000000 
 0.020000 0.060000 0.000000 
 0.040000 0.060000 0.000000 
 0.060000 0.060000 0.000000 
 0.080000 0.060000 0.000000 
 0.100000 0.060000 0.000000 
 0.120000 0.060000 0.000000 
 0.140000 0.060000 0.000000 
 0.160000 0.060000 0.000000 
 0.180000 0.060000 0.000000 
 0.200000 0.060000 0.000000 
 0.220000 0.060000 0.000000 
 0.240000 0.060000 0.000000 
 0.260000 0.060000 0.000000 
 0.280000 0.060000 0.000000 
 0.300000 0.060000 0.000000 
 0.320000 0.060000 0.000000 
 0.340000 0.060000 0.000000 
 0.360000 0.060000 0.000000 
 0.380000 0.060000 0.000000 
 0.400000 0.060000 0.000000 
 0.420000 0.060000 0.000000 
 0.440000 0.060000 0.000000 
 0.460000 0.060000 0.000000 
 0.480000 0.060000 0.000000 
 0.500000 0.060000 0.000000 
 0.520000 0.060000 0.000000 
 0.540000 0.060000 0.000000 
 0.560000 0.060000 0.000000 
 0.580000 0.060000 0.000000 
 0.600000 0.060000 0.000000 
 0.620000 0.060000 0.000000 
 0.640000 0.060000 0.000000 
 0.660000 0.060000 0.000000 
 0.680000 0.060000 0.000000 
 0.700000 0.060000 0.000000 
 0.720000 0.060000 0.000000 
 0.740000 0.060000 0.000000 
 0.760000 0.060000 0.000000 
 0.780000 0.060000 0.000000 
 0.800000 0.060000 0.000000 
 0.820000 0.060000 0.000000 
 0.840000 0.060000 0.000000 
 0.860000 0.060000 0.000000 
 0.880000 0.060000 0.000000 
 0.900000 0.060000 0.000000 
 0.920000 0.060000 0.000000 
 0.940000 0.060000 0.000000 
 0.960000 0.060000 0.000000 
 0.980000 0.060000 0.000000 
 1.000000 0.060000 0.000000 
 0.000000 0.080000 0.000000 
 0.020000 0.080000 0.000000 
 0.040000 0.080000 0.000000 
 0.060000 0.080000 0.000000 
 0.080000 0.080000 0.000000 
 0.100000 0.080000 0.000000 
 0.120000 0.080000 0.000000 
 0.140000 0.080000 0.000000 
 0.160000 0.080000 0.000000 
 0.180000 0.080000 0.000000 
 0.200000 0.080000 0.000000 
 0.220000 0.080000 0.000000 
 0.240000 0.080000 0.000000 
 0.260000 0.080000 0.000000 
 0.280000 0.080000 0.000000 
 0.300000 0.080000 0.000000 
 0.320000 0.080000 0.000000 
 0.340000 0.080000 0.000000 
 0.360000 0.080000 0.000000 
 0.380000 0.080000 0.000000 
 0.400000 0.080000 0.000000 
 0.420000 0.080000 0.000000 
 0.440000 0.080000 0.000000 
 0.460000 0.080000 0.000000 
 0.480000 0.080000 0.000000 
 0.500000 0.080000 0.000000 
 0.520000 0.080000 0.000000 
 0.540000 0.080000 0.000000 
 0.560000 0.080000 0.000000 
 0.580000 0.080000 0.000000 
 0.600000 0.080000 0.000000 
 0.620000 0.080000 0.000000 
 0.640000 0.080000 0.000000 
 0.660000 0.080000 0.000000 
 0.680000 0.080000 0.000000 
 0.700000 0.080000 0.000000 
 0.720000 0.080000 0.000000 
 0.740000 0.080000 0.000000 
 0.760000 0.080000 0.000000 
 0.780000 0.080000 0.000000 
 0.800000 0.080000 0.000000 
 0.820000 0.080000 0.000000 
 0.840000 0.080000 0.000000 
 0.860000 0.080000 0.000000 
 0.880000 0.080000 0.000000 
 0.900000 0.080000 0.000000 
 0.920000 0.080000 0.000000 
 0.940000 0.080000 0.000000 
 0.960000 0.080000 0.000000 
 0.980000 0.080000 0.000000 
 1.000000 0.080000 0.000000 
 0.000000 0.100000 0.000000 
 0.020000 0.100000 0.000000 
 0.040000 0.100000 0.000000 
 0.060000 0.100000 0.000000 
 0.080000 0.100000 0.000000 
 0.100000 0.100000 0.000000 
 0.120000 0.100000 0.000000 
 0.140000 0.100000 0.000000 
 0.160000 0.100000 0.000000 
 0.180000 0.100000 0.000000 
 0.200000 0.100000 0.000000 
 0.220000 0.100000 0.000000 
 0.240000 0.100000 0.000000 
 0.260000 0.100000 0.000000 
 0.280000 0.100000 0.000000 
 0.300000 0.100000 0.000000 
 0.320000 0.100000 0.000000 
 0.340000 0.100000 0.000000 
 0.360000 0.100000 0.000000 
 0.380000 0.100000 0.000000 
 0.400000 0.100000 0.000000 
 0.420000 0.100000 0.000000 
 0.440000 0.100000 0.000000 
 0.460000 0.100000 0.000000 
 0.480000 0.100000 0.000000 
 0.500000 0.100000 0.000000 
 0.520000 0.100000 0.000000 
 0.540000 0.100000 0.000000 
 0.560000 0.100000 0.000000 
 0.580000 0.100000 0.000000 
 0.600000 0.100000 0.000000 
 0.620000 0.100000 0.000000 
 0.640000 0.100000 0.000000 
 0.660000 0.100000 0.000000 
 0.680000 0.100000 0.000000 
 0.700000 0.100000 0.000000 
 0.720000 0.100000 0.000000 
 0.740000 0.100000 0.000000 
 0.760000 0.100000 0.000000 
 0.780000 0.100000 0.000000 
 0.800000 0.100000 0.000000 
 0.820000 0.100000 0.000000 
 0.840000 0.100000 0.000000 
 0.860000 0.100000 0.000000 
 0.880000 0.100000 0.000000 
 0.900000 0.100000 0.000000 
 0.920000 0.100000 0.000000 
 0.940000 0.100000 0.000000 
 0.960000 0.100000 0.000000 
 0.980000 0.100000 0.000000 
 1.000000 0.100000 0.000000 
 0.000000 0.120000 0.000000 
 0.020000 0.120000 0.000000 
 0.040000 0.120000 0.000000 
 0.060000 0.120000 0.000000 
 0.080000 0.120000 0.000000 
 0.100000 0.120000 0.000000 
 0.120000 0.120000 0.000000 
 0.140000 0.120000 0.000000 
 0.160000 0.120000 0.000000 
 0.180000 0.120000 0.000000 
 0.200000 0.120000 0.000000 
 0.220000 0.120000 0.000000 
 0.240000 0.120000 0.000000 
 0.260000 0.120000 0.000000 
 0.280000 0.120000 0.000000 
 0.300000 0.120000 0.000000 
 0.320000 0.120000 0.000000 
 0.340000 0.120000 0.000000 
 0.360000 0.120000 0.000000 
 0.380000 0.120000 0.000000 
 0.400000 0.120000 0.000000 
 0.420000 0.120000 0.000000 
 0.440000 0.120000 0.000000 
 0.460000 0.120000 0.000000 
 0.480000 0.120000 0.000000 
 0.500000 0.120000 0.000000 
 0.520000 0.120000 0.000000 
 0.540000 0.120000 0.000000 
 0.560000 0.120000 0.000000 
 0.580000 0.120000 0.000000 
 0.600000 0.120000 0.000000 
[...]
<PointData  Scalars="U"> 
<DataArray  type="Float64"  Name="U"  format="ascii"> 
 0.000000e+00
 0.000000e+00
 0.000000e+00
 0.000000e+00
 0.000000e+00
 0.000000e+00
 0.000000e+00
 0.000000e+00
 0.000000e+00
 0.000000e+00
 0.000000e+00
 0.000000e+00
 0.000000e+00
 0.000000e+00
 0.000000e+00
 0.000000e+00
 0.000000e+00
 0.000000e+00
 0.000000e+00
 0.000000e+00
 0.000000e+00
 0.000000e+00
 0.000000e+00
 0.000000e+00
 0.000000e+00
 0.000000e+00
 0.000000e+00
 0.000000e+00
 0.000000e+00
 0.000000e+00
 0.000000e+00
 0.000000e+00
 0.000000e+00
 0.000000e+00
 0.000000e+00
 0.000000e+00
 0.000000e+00
 0.000000e+00
 0.000000e+00
 0.000000e+00
 0.000000e+00
 0.000000e+00
 0.000000e+00
 0.000000e+00
 0.000000e+00
 0.000000e+00
 0.000000e+00
 0.000000e+00
 0.000000e+00
 0.000000e+00
 0.000000e+00
 0.000000e+00
 2.636201e-09
 5.242420e-09
 7.813292e-09
 1.038627e-08
 1.304790e-08
 1.591979e-08
 1.909686e-08
 2.243099e-08
 2.474783e-08
 2.081967e-08
 -1.127576e-08
 -1.677153e-07
 -1.291189e-06
 -1.165279e-07
 6.919569e-07
 9.036878e-08
 -2.022956e-09
 -1.034994e-08
 4.403071e-08
 9.903212e-08
 9.225391e-08
 5.774667e-08
 3.052345e-08
 1.625866e-08
 1.151488e-08
 1.404840e-08
 2.516570e-08
 5.104620e-08
 1.058449e-07
 2.196461e-07
 1.991971e-07
 1.736546e-05
 -4.053388e-07
 -1.379758e-06
 -1.918604e-07
 5.667770e-07
 9.262265e-09
 -1.021552e-06
 9.285661e-08
 8.144169e-07
 1.229746e-07
 -2.271192e-08
 -4.508442e-08
 -3.775478e-08
 -2.332873e-08
 -8.533516e-09
 2.493023e-09
 7.024051e-09
 4.947687e-09
 0.000000e+00
 0.000000e+00
 5.306670e-09
 1.052765e-08
 1.563315e-08
 2.069081e-08
 2.588431e-08
 3.150557e-08
 3.791026e-08
 4.538747e-08
 5.378083e-08
 6.144321e-08
 6.295152e-08
 4.881810e-08
 -6.933688e-08
 1.720838e-05
 -3.644938e-07
 -1.399683e-07
 -2.799318e-08
 -1.085935e-07
 8.733733e-08
 2.851296e-07
 2.076480e-07
 1.022413e-07
 4.721068e-08
 2.336362e-08
 1.635473e-08
 2.028682e-08
 3.674365e-08
 7.567414e-08
 1.574416e-07
 3.286873e-07
 8.672308e-07
 -1.540996e-07
 -1.283701e-06
 -9.401922e-08
 1.728675e-05
 -1.304936e-06
 -1.072693e-09
 8.135713e-07
 1.757394e-05
 -9.033948e-08
 -1.209048e-07
 -1.333695e-07
 -1.114164e-07
 -8.078641e-08
 -4.688089e-08
 -1.311156e-08
 1.199966e-08
 2.101126e-08
 1.467349e-08
 0.000000e+00
 0.000000e+00
 8.072576e-09
 1.594528e-08
 2.352090e-08
 3.087842e-08
 3.830553e-08
 4.630256e-08
 5.559343e-08
 6.721854e-08
 8.294878e-08
 1.070382e-07
 1.540825e-07
 2.866156e-07
 8.413515e-07
 -2.852336e-07
 -2.732072e-06
 -4.250180e-07
 4.846516e-07
 -1.151132e-06
 4.335589e-08
 9.201722e-07
 2.661935e-07
 9.273633e-08
 3.448853e-08
 1.500438e-08
 1.143163e-08
 1.539544e-08
 2.745537e-08
 6.005478e-08
 1.338720e-07
 2.417707e-07
 1.904757e-07
 -1.072638e-06
 9.492743e-08
 1.647030e-06
 2.072636e-07
 -1.231483e-06
 1.739272e-05
 6.890059e-07
 -1.847105e-07
 -1.528517e-06
 -4.603300e-07
 -2.703595e-07
 -1.833796e-07
 -1.270229e-07
 -7.163553e-08
 -8.857681e-09
 3.932979e-08
 5.147022e-08
 3.278494e-08
 0.000000e+00
 0.000000e+00
 1.105637e-08
 2.169060e-08
 3.166241e-08
 4.103182e-08
 5.019231e-08
 5.985197e-08
 7.103836e-08
 8.524462e-08
 1.049442e-07
 1.349733e-07
 1.852958e-07
 2.688120e-07
 3.011446e-07
 3.492383e-08
 -3.156663e-07
 1.715020e-05
 -1.767664e-07
 -8.496203e-08
 1.742364e-05
 -1.118723e-08
 1.751892e-08
 -4.615439e-09
 -1.088277e-08
 -7.493349e-09
 2.432078e-10
 4.484389e-09
 -6.552871e-11
 1.486620e-10
 5.837512e-08
 2.023619e-07
 3.307793e-07
 2.973256e-07
 1.775175e-05
 3.462372e-07
 3.015055e-07
 6.827740e-07
 -1.281296e-07
 -1.316978e-06
 -4.830318e-07
 -6.060661e-07
 -5.078990e-07
 -3.327691e-07
 -2.275772e-07
 -1.751623e-07
 -1.107278e-07
 1.030652e-08
 1.088985e-07
 1.143468e-07
 6.394148e-08
 0.000000e+00
 0.000000e+00
 1.449460e-08
 2.815103e-08
 4.046355e-08
 5.144608e-08
 6.162962e-08
 7.194329e-08
 8.360480e-08
 9.812348e-08
 1.174470e-07
 1.440492e-07
 1.796783e-07
 2.180284e-07
 2.367899e-07
 2.759719e-07
 7.808748e-07
 -1.480669e-07
 -1.267477e-06
 5.592572e-07
 -7.976026e-08
 -1.325309e-06
 -2.642824e-07
 -1.149879e-07
 -6.624659e-08
 -3.494079e-08
 -7.236636e-09
 4.660995e-09
 -2.289905e-08
 -1.181793e-07
 -1.361955e-07
 1.831076e-07
 6.029551e-07
 1.257539e-06
 3.217592e-07
 -1.037900e-06
 -1.542084e-08
 1.023802e-07
 -1.061720e-07
 -3.985358e-07
 -4.919568e-07
 -5.237437e-07
 -4.782250e-07
 -3.257990e-07
 -2.069092e-07
 -2.354811e-07
 -2.380861e-07
 5.511605e-08
 2.988060e-07
 2.290846e-07
 1.024369e-07
 0.000000e+00
 0.000000e+00
 1.883099e-08
 3.604790e-08
 5.068433e-08
 6.272525e-08
 7.298150e-08
 8.273070e-08
 9.338527e-08
 1.063071e-07
 1.226877e-07
 1.431969e-07
 1.668740e-07
 1.895936e-07
 2.077583e-07
 2.308564e-07
 1.924210e-07
 -1.504516e-07
 -3.805583e-07
 -1.312033e-08
 1.001097e-07
 -1.833877e-07
 -2.263155e-07
 -1.567492e-07
 -1.125049e-07
 -6.280818e-08
 -5.322985e-10
 4.335996e-08
 2.273986e-08
 -1.425981e-07
 -1.238459e-06
 1.013512e-08
 9.610977e-07
 6.191843e-07
 4.089215e-07
 -1.547566e-08
 -1.019211e-07
 -4.487549e-08
 -8.907345e-08
 -2.242599e-07
 -3.796820e-07
 -5.518590e-07
 -5.918346e-07
 -2.766998e-07
 -1.025602e-08
 -1.570999e-07
 -1.252031e-06
 6.606343e-08
 9.744892e-07
 3.150489e-07
 1.118094e-07
 0.000000e+00
 0.000000e+00
 2.490038e-08
 4.669724e-08
 6.364502e-08
 7.586530e-08
 8.485790e-08
 9.260155e-08
 1.008752e-07
 1.109662e-07
 1.235639e-07
 1.385557e-07
 1.545834e-07
 1.686379e-07
 1.756262e-07
 1.610633e-07
 7.498040e-08
 -1.855891e-07
 -1.343570e-06
 -7.162325e-08
 7.663261e-07
 4.630510e-08
 -1.358643e-07
 -1.711835e-07
 -1.686232e-07
 -1.112777e-07
 2.296564e-08
 1.457883e-07
 1.837417e-07
 1.761092e-07
 8.788263e-08
 1.737954e-05
 -1.159766e-06
 1.117314e-07
 8.282460e-07
 -1.128617e-09
 -1.826496e-07
 -6.808594e-08
 3.353370e-08
 -5.013262e-08
 -2.509081e-07
 -5.452926e-07
 -1.653879e-06
 -2.658714e-07
 7.467277e-07
 1.979562e-07
 8.885164e-08
 1.756953e-05
 1.166079e-07
 1.166141e-07
 5.513674e-08
 0.000000e+00
 0.000000e+00
 3.432700e-08
 6.253878e-08
 8.157427e-08
 9.230395e-08
 9.793743e-08
 1.018551e-07
 1.064513e-07
 1.129935e-07
 1.218403e-07
 1.325813e-07
 1.440095e-07
 1.539879e-07
 1.589509e-07
 1.524455e-07
 1.265005e-07
 8.917528e-08
 2.652526e-09
 1.741013e-05
 -1.004030e-07
 -1.179892e-07
 -1.636289e-07
 -1.998686e-07
 -2.767993e-07
 -2.659766e-07
 6.205233e-08
 3.606148e-07
 3.887787e-07
 4.797919e-07
 1.080520e-06
 1.528023e-07
 -1.243158e-06
 1.718569e-05
 -2.856398e-07
 -4.933466e-07
 -5.910297e-07
 -5.063283e-08
 3.988023e-07
 2.244009e-07
 -6.376552e-08
 -3.109527e-07
 -4.668414e-07
 1.720796e-05
 -1.158156e-08
 1.860749e-07
 9.414420e-07
 1.877337e-07
 -1.110291e-06
 -1.047284e-07
 -5.319906e-09
 0.000000e+00
 0.000000e+00
 5.044802e-08
 8.829400e-08
 1.082121e-07
 1.138296e-07
 1.125376e-07
 1.102340e-07
 1.099338e-07
 1.125938e-07
 1.180914e-07
 1.257695e-07
 1.346871e-07
 1.438676e-07
 1.529988e-07
 1.652161e-07
 1.983809e-07
 3.293920e-07
 9.285577e-07
 -2.297218e-08
 -1.379303e-06
 -3.430987e-07
 -2.009739e-07
 -1.858165e-07
 -3.021975e-07
 -1.321044e-06
 4.993130e-08
 1.024106e-06
 4.727553e-07
 4.419557e-07
 5.020051e-07
 3.895254e-07
 7.001980e-07
 -2.596399e-07
 -1.614768e-06
 -8.537003e-07
 -2.805099e-06
 -1.040990e-07
 1.732541e-06
 4.389918e-07
 7.726695e-08
 -7.810538e-08
 -6.088469e-07
 -3.180016e-07
 -9.090294e-07
 -4.392983e-07
 2.075413e-07
 4.865103e-07
 1.262364e-07
 -1.521719e-08
 -2.357125e-09
 0.000000e+00
 0.000000e+00
 8.055471e-08
 1.337188e-07
 1.497533e-07
 1.418754e-07
 1.276105e-07
 1.162711e-07
 1.102912e-07
 1.092755e-07
 1.121152e-07
 1.177031e-07
 1.251730e-07
 1.341922e-07
 1.457536e-07
 1.641963e-07
 2.010321e-07
 2.732371e-07
 3.002506e-07
 2.798526e-08
 -2.780960e-07
 -2.612391e-07
 -1.484918e-07
 -7.623820e-08
 -1.029729e-08
 7.295005e-09
 1.751462e-05
 1.110903e-07
 2.057725e-07
 2.611571e-07
 3.012049e-07
 2.935276e-07
 2.244759e-07
 -7.287209e-08
 -3.481245e-07
 -2.597515e-07
 -1.573493e-07
 3.485979e-05
 -1.213223e-08
 6.434928e-08
 6.269866e-08
 1.282632e-07
 9.621192e-08
 1.719807e-05
 -8.637713e-07
 -2.908748e-06
 -1.554080e-07
 1.686115e-06
 3.906266e-07
 8.242772e-08
 1.432663e-08
 0.000000e+00
 0.000000e+00
 1.412502e-07
 2.211319e-07
 2.155303e-07
 1.744641e-07
 1.385987e-07
 1.165512e-07
 1.056029e-07
 1.021130e-07
 1.034292e-07
 1.078312e-07
 1.142987e-07
 1.224680e-07
 1.328106e-07
 1.467294e-07
 1.648114e-07
 1.768020e-07
 1.430852e-07
 3.032911e-08
 -8.401432e-08
 -1.065605e-07
 -5.550210e-08
 4.145267e-08
 2.465212e-07
 9.246067e-07
 5.343879e-08
 -1.222298e-06
 -1.097864e-07
 9.748771e-08
 1.724853e-07
 1.784296e-07
 1.213199e-07
 1.250928e-08
 -1.440770e-08
 3.188737e-07
 1.733780e-06
 4.372968e-08
 -2.546022e-06
 -3.972359e-07
 -1.275741e-08
 2.618347e-07
 9.057078e-07
 -1.009500e-07
 -1.513632e-06
 -5.504995e-07
 3.457606e-05
 -1.820742e-07
 -1.283011e-08
 -4.481500e-09
 -3.512782e-09
 0.000000e+00
 0.000000e+00
 2.679439e-07
 4.127639e-07
 3.113339e-07
 1.955140e-07
 1.345109e-07
 1.057665e-07
 9.365551e-08
 9.030011e-08
 9.176776e-08
 9.599611e-08
 1.018591e-07
 1.087570e-07
 1.163408e-07
 1.238994e-07
 1.285895e-07
 1.222838e-07
 9.249675e-08
 3.868471e-08
 -1.103275e-08
 -2.427665e-08
 6.538286e-09
 7.995736e-08
 2.023510e-07
 2.869582e-07
 7.527469e-08
 -1.720451e-07
 -1.057564e-07
 3.658172e-08
 1.067821e-07
 1.228213e-07
 9.551335e-08
 3.920769e-08
 -1.467009e-08
 1.309080e-07
 5.355029e-07
 3.149628e-07
 -2.748061e-07
 -2.644218e-07
 -1.840494e-08
 1.810911e-07
 2.869688e-07
 9.713186e-08
 4.579722e-08
 1.218591e-06
 -5.256878e-07
 -2.820090e-06
 -4.013653e-07
 -8.254434e-08
 -2.737988e-08
 0.000000e+00
 0.000000e+00
 2.663340e-07
 1.023020e-06
 3.384437e-07
 1.590542e-07
 1.002549e-07
 7.961253e-08
 7.355236e-08
 7.394612e-08
 7.748828e-08
 8.261017e-08
 8.843349e-08
 9.433067e-08
 9.960256e-08
 1.030097e-07
 1.020866e-07
 9.292456e-08
 7.244136e-08
 4.389911e-08
 1.941298e-08
 1.245043e-08
 2.898882e-08
 6.675342e-08
 1.107577e-07
 1.174300e-07
 4.979698e-08
 -2.017335e-08
 -9.205518e-09
 4.767751e-08
 9.337714e-08
 1.109856e-07
 1.024014e-07
 6.534147e-08
 -5.993590e-08
 -1.073215e-06
 2.260889e-07
 9.643754e-07
 1.435342e-07
 -3.253989e-08
 1.875665e-08
 1.091678e-07
 1.518499e-07
 1.262010e-07
 1.333100e-07
 3.292369e-08
 -1.500718e-06
 -7.094769e-07
 3.101144e-07
 -4.320795e-08
 -3.891994e-08
 0.000000e+00
 0.000000e+00
 1.743743e-05
 3.333246e-10
 3.886015e-08
 3.119005e-08
 3.476854e-08
 4.084319e-08
 4.764783e-08
 5.468946e-08
 6.173043e-08
 6.856201e-08
 7.492666e-08
 8.044857e-08
 8.452037e-08
 8.614023e-08
 8.382721e-08
 7.600520e-08
 6.230984e-08
 4.533241e-08
 3.072259e-08
 2.436164e-08
 2.883330e-08
 4.143228e-08
 5.280127e-08
 4.946264e-08
 3.027025e-08
 2.035767e-08
 4.112855e-08
 7.949006e-08
 1.104224e-07
 1.251793e-07
 1.318764e-07
 1.459532e-07
 1.836044e-07
 1.743022e-07
 1.761248e-05
 7.835047e-08
 2.924899e-08
 -3.320235e-09
 3.496877e-08
 8.901677e-08
 1.169664e-07
 1.125427e-07
 9.495008e-08
 3.844707e-08
 -1.817729e-07
 1.708475e-05
 -3.769251e-07
 -1.892569e-07
 -5.606153e-08
 0.000000e+00
 0.000000e+00
 -2.711073e-07
 -1.423296e-06
 -2.977334e-07
 -1.038435e-07
 -3.252175e-08
 1.481873e-09
 2.153513e-08
 3.543551e-08
 4.617382e-08
 5.496245e-08
 6.222586e-08
 6.795008e-08
 7.179840e-08
 7.315801e-08
 7.125600e-08
 6.549962e-08
 5.607518e-08
 4.445692e-08
 3.316474e-08
 2.455823e-08
 1.940810e-08
 1.614059e-08
 1.137664e-08
 3.584508e-09
 9.775252e-10
 2.218460e-08
 7.194425e-08
 1.225363e-07
 1.466260e-07
 1.485591e-07
 1.538081e-07
 2.032729e-07
 3.864092e-07
 1.056439e-06
 1.495657e-07
 -1.211158e-06
 -1.986460e-07
 -4.870484e-08
 3.805835e-08
 1.014061e-07
 1.216343e-07
 1.023776e-07
 8.207955e-08
 1.719820e-07
 7.486049e-07
 -2.818743e-07
 -1.662877e-06
 -3.415151e-07
 4.404998e-08
 0.000000e+00
 0.000000e+00
 -1.916271e-07
 -3.791794e-07
 -2.931726e-07
 -1.478704e-07
 -6.958466e-08
 -2.588671e-08
 9.263260e-10
 1.909048e-08
 3.245007e-08
 4.282066e-08
 5.101236e-08
 5.727979e-08
 6.153180e-08
 6.345825e-08
 6.266931e-08
 5.889978e-08
 5.224132e-08
 4.323537e-08
 3.263396e-08
 2.087861e-08
 7.722338e-09
 -7.528408e-09
 -2.529950e-08
 -4.474117e-08
 -5.438436e-08
 -1.214865e-08
 1.021544e-07
 1.991703e-07
 2.080983e-07
 1.702161e-07
 1.374674e-07
 1.501099e-07
 2.673893e-07
 4.149957e-07
 2.308824e-07
 -9.759050e-08
 -1.558263e-07
 -7.126666e-08
 5.821002e-08
 1.632171e-07
 1.702700e-07
 1.038295e-07
 -1.497957e-08
 -3.054858e-08
 1.871108e-07
 -3.566298e-08
 -1.471809e-06
 -2.288827e-07
 7.223614e-07
 0.000000e+00
 0.000000e+00
 -1.131469e-07
 -1.888445e-07
 -1.805069e-07
 -1.263061e-07
 -7.501919e-08
 -3.783321e-08
 -1.168962e-08
 7.245209e-09
 2.156183e-08
 3.277115e-08
 4.166757e-08
 4.858794e-08
 5.357526e-08
 5.649314e-08
 5.712628e-08
 5.527427e-08
 5.080004e-08
 4.355413e-08
 3.312205e-08
 1.850681e-08
 -1.808083e-09
 -2.855971e-08
 -5.955968e-08
 -9.534497e-08
 -1.618407e-07
 -1.470993e-07
 1.545244e-07
 3.915060e-07
 3.131306e-07
 1.827930e-07
 8.308482e-08
 -1.415148e-08
 2.982230e-09
 2.842382e-07
 4.051598e-07
 1.662721e-07
 -9.523655e-08
 -1.719766e-07
 1.036821e-07
 3.487121e-07
 2.865749e-07
 1.518817e-07
 -5.189814e-08
 -1.139682e-06
 1.258499e-07
 9.254848e-07
 1.395123e-07
 1.741338e-05
 -5.465860e-08
 0.000000e+00
 0.000000e+00
 -6.396126e-08
 -1.060277e-07
 -1.126843e-07
 -9.303168e-08
 -6.496745e-08
 -3.882921e-08
 -1.733952e-08
 -1.621661e-10
 1.366521e-08
 2.496101e-08
 3.425115e-08
 4.179952e-08
 4.767499e-08
 5.181624e-08
 5.408250e-08
 5.427454e-08
 5.208964e-08
 4.695376e-08
 3.767273e-08
 2.190284e-08
 -4.274542e-09
 -4.499428e-08
 -9.378066e-08
 -1.219904e-07
 -1.809072e-07
 -1.146991e-06
 1.903063e-07
 1.069654e-06
 3.836466e-07
 1.593963e-07
 2.333651e-08
 -1.358078e-07
 -1.112699e-06
 2.645734e-07
 1.115014e-06
 3.355935e-07
 -5.633385e-08
 -1.200009e-06
 9.907034e-08
 1.012303e-06
 3.835845e-07
 2.343554e-07
 2.073117e-07
 1.696067e-07
 1.764155e-05
 2.890953e-07
 9.110021e-07
 -1.318658e-08
 -1.265179e-06
 0.000000e+00
 0.000000e+00
 -3.749067e-08
 -6.371930e-08
 -7.257295e-08
 -6.625873e-08
 -5.166823e-08
 -3.475770e-08
 -1.861574e-08
 -4.257756e-09
 8.247648e-09
 1.911224e-08
 2.854416e-08
 3.666264e-08
 4.349645e-08
 4.900627e-08
 5.309911e-08
 5.561174e-08
 5.623273e-08
 5.430831e-08
 4.842106e-08
 3.548657e-08
 8.755480e-09
 -4.634834e-08
 -1.554203e-07
 -1.775018e-07
 1.271517e-07
 3.498158e-07
 1.775856e-05
 2.022564e-07
 1.626625e-07
 7.700568e-08
 -3.807869e-08
 -5.329557e-08
 1.964281e-07
 1.788319e-05
 3.412793e-07
 2.468173e-07
 1.735925e-07
 1.097800e-07
 1.756230e-05
 1.151287e-07
 1.741851e-07
 2.262946e-07
 4.019571e-07
 1.058321e-06
 1.795703e-07
 -1.069684e-06
 3.691087e-08
 -2.512723e-08
 -1.884474e-07
 0.000000e+00
 0.000000e+00
 -2.315614e-08
 -4.043893e-08
 -4.846321e-08
 -4.745854e-08
 -4.013407e-08
 -2.957344e-08
 -1.796636e-08
 -6.464649e-09
 4.465182e-09
 1.467927e-08
 2.413497e-08
 3.279934e-08
 4.063380e-08
 4.760315e-08
 5.367422e-08
 5.878929e-08
 6.280581e-08
 6.537501e-08
 6.566785e-08
 6.164781e-08
 4.775657e-08
 6.072217e-09
 -1.343209e-07
 -1.139686e-06
 3.520842e-07
 1.911071e-06
 3.690059e-07
 -1.108114e-06
 -9.553686e-08
 2.949308e-08
 -2.522538e-08
 -9.019404e-07
 1.066272e-06
 1.067884e-06
 -8.855365e-07
 5.294820e-08
 3.162145e-07
 9.840716e-07
 9.016988e-08
 -1.207008e-06
 -1.040254e-07
 1.267885e-07
 2.898776e-07
 3.811711e-07
 1.651315e-07
 -9.639112e-08
 -8.144457e-08
 -4.695017e-08
 -5.356289e-08
 0.000000e+00
 0.000000e+00
 -1.514702e-08
 -2.709706e-08
 -3.382506e-08
 -3.500719e-08
 -3.165164e-08
 -2.525046e-08
 -1.709885e-08
 -8.050481e-09
 1.411596e-09
 1.100418e-08
 2.051560e-08
 2.976691e-08
 3.863734e-08
 4.709509e-08
 5.519266e-08
 6.303451e-08
 7.075608e-08
 7.854930e-08
 8.676518e-08
 9.617662e-08
 1.086640e-07
 1.292583e-07
 1.740626e-07
 2.013930e-07
 1.776054e-05
 3.650133e-07
 1.648269e-07
 -1.089998e-07
 -4.856691e-08
 1.104362e-07
 2.471261e-07
 3.482790e-07
 1.787826e-05
 1.847445e-07
 -5.294309e-08
 4.513668e-09
 2.023331e-07
 3.113976e-07
 9.962677e-08
 -1.555256e-07
 -9.260214e-08
 6.147537e-08
 1.577423e-07
 1.808241e-07
 1.075352e-07
 1.229353e-08
 -2.368928e-08
 -2.589436e-08
 -1.966145e-08
 0.000000e+00
 0.000000e+00
 -1.054974e-08
 -1.928971e-08
 -2.496926e-08
 -2.716711e-08
 -2.616789e-08
 -2.259530e-08
 -1.706401e-08
 -1.001835e-08
 -1.763416e-09
 7.413780e-09
 1.716598e-08
 2.713142e-08
 3.706855e-08
 4.695549e-08
 5.697065e-08
 6.740747e-08
 7.865746e-08
 9.136156e-08
 1.068235e-07
 1.280501e-07
 1.627759e-07
 2.336414e-07
 4.191922e-07
 1.085801e-06
 2.013784e-07
 -1.125912e-06
 -1.309639e-07
 -2.339632e-08
 7.183360e-08
 2.197469e-07
 4.664562e-07
 1.162106e-06
 2.491986e-07
 -1.156804e-06
 -1.806368e-07
 -1.522913e-08
 9.179577e-08
 1.291856e-07
 6.890415e-08
 -6.830920e-09
 -4.967996e-09
 4.718246e-08
 9.217870e-08
 1.022800e-07
 7.438110e-08
 3.312325e-08
 5.490432e-09
 -5.347771e-09
 -5.775507e-09
 0.000000e+00
 0.000000e+00
 -7.864383e-09
 -1.469333e-08
 -1.972014e-08
 -2.257949e-08
 -2.324998e-08
 -2.186458e-08
 -1.851772e-08
 -1.319390e-08
 -5.874797e-09
 3.242956e-09
 1.362437e-08
 2.456494e-08
 3.558560e-08
 4.670465e-08
 5.833841e-08
 7.100260e-08
 8.520138e-08
 1.016568e-07
 1.217604e-07
 1.483387e-07
 1.873532e-07
 2.509096e-07
 3.542050e-07
 4.114440e-07
 1.602448e-07
 -1.396339e-07
 -1.203493e-07
 1.699702e-08
 1.406955e-07
 2.643219e-07
 4.034913e-07
 4.762051e-07
 2.193515e-07
 -1.035795e-07
 -1.129984e-07
 -1.318200e-08
 4.906346e-08
 7.177392e-08
 5.720230e-08
 3.370210e-08
 3.070398e-08
 4.717468e-08
 6.436206e-08
 6.783290e-08
 5.509235e-08
 3.454824e-08
 1.667349e-08
 5.822477e-09
 1.149654e-09
 0.000000e+00
 0.000000e+00
 -6.263444e-09
 -1.197187e-08
 -1.669982e-08
 -2.020653e-08
 -2.237783e-08
 -2.307144e-08
 -2.194407e-08
 -1.840305e-08
 -1.185077e-08
 -2.227802e-09
 9.565112e-09
 2.201406e-08
 3.407738e-08
 4.594897e-08
 5.866256e-08
 7.309442e-08
 8.959472e-08
 1.085179e-07
 1.306946e-07
 1.572236e-07
 1.889311e-07
 2.243271e-07
 2.491862e-07
 2.174032e-07
 8.850811e-08
 -5.251618e-08
 -6.413808e-08
 6.579360e-08
 2.122348e-07
 2.902163e-07
 3.193140e-07
 2.925691e-07
 1.790622e-07
 5.227969e-08
 6.805433e-09
 2.215768e-08
 4.642114e-08
 5.791975e-08
 5.487303e-08
 4.675881e-08
 4.389614e-08
 4.774953e-08
 5.239459e-08
 5.170577e-08
 4.394297e-08
 3.191720e-08
 1.992515e-08
 1.063193e-08
 4.380260e-09
 0.000000e+00
 0.000000e+00
 -5.241359e-09
 -1.026509e-08
 -1.492480e-08
 -1.916511e-08
 -2.294664e-08
 -2.604901e-08
 -2.777260e-08
 -2.671464e-08
 -2.108238e-08
 -9.997743e-09
 4.938559e-09
 2.009533e-08
 3.292159e-08
 4.430183e-08
 5.714809e-08
 7.312252e-08
 9.167085e-08
 1.121741e-07
 1.352454e-07
 1.607330e-07
 1.853237e-07
 2.017307e-07
 1.966291e-07
 1.493830e-07
 4.289937e-08
 -1.231557e-07
 -1.794403e-07
 1.090794e-07
 3.782734e-07
 3.543826e-07
 2.808524e-07
 2.228530e-07
 1.579491e-07
 9.716842e-08
 6.346551e-08
 5.608384e-08
 5.910937e-08
 6.074596e-08
 5.776374e-08
 5.266019e-08
 4.898033e-08
 4.761529e-08
 4.662146e-08
 4.351363e-08
 3.730326e-08
 2.889026e-08
 2.004848e-08
 1.215767e-08
 5.624680e-09
 0.000000e+00
 0.000000e+00
 -4.450242e-09
 -8.940193e-09
 -1.357540e-08
 -1.855575e-08
 -2.411429e-08
 -3.027419e-08
 -3.628446e-08
 -3.973466e-08
 -3.624272e-08
 -2.205863e-08
 2.945601e-10
 2.121451e-08
 3.361470e-08
 4.089721e-08
 5.201863e-08
 7.059902e-08
 9.212500e-08
 1.131400e-07
 1.367716e-07
 1.645330e-07
 1.889601e-07
 1.989699e-07
 1.865371e-07
 1.445337e-07
 5.756712e-08
 -1.406434e-07
 -1.226249e-06
 8.974942e-08
 1.008903e-06
 3.813099e-07
 2.245925e-07
 1.683843e-07
 1.350724e-07
 1.091244e-07
 9.115356e-08
 8.090352e-08
 7.475236e-08
 6.919326e-08
 6.292819e-08
 5.657358e-08
 5.120055e-08
 4.703599e-08
 4.326533e-08
 3.878250e-08
 3.301770e-08
 2.620150e-08
 1.903749e-08
 1.217672e-08
 5.883304e-09
 0.000000e+00
 0.000000e+00
 -3.631368e-09
 -7.488068e-09
 -1.189112e-08
 -1.734230e-08
 -2.456406e-08
 -3.436681e-08
 -4.694226e-08
 -5.966382e-08
 -6.327344e-08
 -4.388173e-08
 -2.444882e-09
 3.307713e-08
 4.054812e-08
 3.249395e-08