<VTKFile type="UnstructuredGrid"  version="0.1"   >
<UnstructuredGrid>  
<Piece  NumberOfPoints="     2601"  NumberOfCells="     5000">  
<Points>  
<DataArray  type="Float64"  NumberOfComponents="3"  format="ascii">  
 0.000000 0.000000 0.000000 
 0.020000 0.000000 0.000000 
 0.040000 0.000000 0.000000 
 0.060000 0.000000 0.000000 
 0.080000 0.000000 0.000000 
 0.100000 0.000000 0.000000 
 0.120000 0.000000 0.000000 
 0.140000 0.000000 0.000000 
 0.160000 0.000000 0.000000 
 0.180000 0.000000 0.000000 
 0.200000 0.000000 0.000000 
 0.220000 0.000000 0.000000 
 0.240000 0.000000 0.000000 
 0.260000 0.000000 0.000000 
 0.280000 0.000000 0.000000 
 0.300000 0.000000 0.000000 
 0.320000 0.000000 0.000000 
 0.340000 0.000000 0.000000 
 0.360000 0.000000 0.000000 
 0.380000 0.000000 0.000000 
 0.400000 0.000000 0.000000 
 0.420000 0.000000 0.000000 
 0.440000 0.000000 0.000000 
 0.460000 0.000000 0.000000 
 0.480000 0.000000 0.000000 
 0.500000 0.000000 0.000000 
 0.520000 0.000000 0.000000 
 0.540000 0.000000 0.000000 
 0.560000 0.000000 0.000000 
 0.580000 0.000000 0.000000 
 0.600000 0.000000 0.000000 
 0.620000 0.000000 0.000000 
 0.640000 0.000000 0.000000 
 0.660000 0.000000 0.000000 
 0.680000 0.000000 0.000000 
 0.700000 0.000000 0.000000 
 0.720000 0.000000 0.000000 
 0.740000 0.000000 0.000000 
 0.760000 0.000000 0.000000 
 0.780000 0.000000 0.000000 
 0.800000 0.000000 0.000000 
 0.820000 0.000000 0.000000 
 0.840000 0.000000 0.000000 
 0.860000 0.000000 0.000000 
 0.880000 0.000000 0.000000 
 0.900000 0.000000 0.000000 
 0.920000 0.000000 0.000000 
 0.940000 0.000000 0.000000 
 0.960000 0.000000 0.000000 
 0.980000 0.000000 0.000000 
 1.000000 0.000000 0.000000 
 0.000000 0.020000 0.000000 
 0.020000 0.020000 0.000000 
 0.040000 0.020000 0.000000 
 0.060000 0.020000 0.000000 
 0.080000 0.020000 0.000000 
 0.100000 0.020000 0.000000 
 0.120000 0.020000 0.000000 
 0.140000 0.020000 0.000000 
 0.160000 0.020000 0.000000 
 0.180000 0.020000 0.000000 
 0.200000 0.020000 0.000000 
 0.220000 0.020000 0.000000 
 0.240000 0.020000 0.000000 
 0.260000 0.020000 0.000000 
 0.280000 0.020000 0.000000 
 0.300000 0.020000 0.000000 
 0.320000 0.020000 0.000000 
 0.340000 0.020000 0.000000 
 0.360000 0.020000 0.000000 
 0.380000 0.020000 0.000000 
 0.400000 0.020000 0.000000 
 0.420000 0.020000 0.000000 
 0.440000 0.020000 0.000000 
 0.460000 0.020000 0.000000 
 0.480000 0.020000 0.000000 
 0.500000 0.020000 0.000000 
 0.520000 0.020000 0.000000 
 0.540000 0.020000 0.000000 
 0.560000 0.020000 0.000000 
 0.580000 0.020000 0.000000 
 0.600000 0.020000 0.000000 
 0.620000 0.020000 0.000000 
 0.640000 0.020000 0.000000 
 0.660000 0.020000 0.000000 
 0.680000 0.020000 0.000000 
 0.700000 0.020000 0.000000 
 0.720000 0.020000 0.000000 
 0.740000 0.020000 0.000000 
 0.760000 0.020000 0.000000 
 0.780000 0.020000 0.000000 
 0.800000 0.020000 0.000000 
 0.820000 0.020000 0.000000 
 0.840000 0.020000 0.000000 
 0.860000 0.020000 0.000000 
 0.880000 0.020000 0.000000 
 0.900000 0.020000 0.000000 
 0.920000 0.020000 0.000000 
 0.940000 0.020000 0.000000 
 0.960000 0.020000 0.000000 
 0.980000 0.020000 0.000000 
 1.000000 0.020000 0.000000 
 0.000000 0.040000 0.000000 
 0.020000 0.040000 0.000000 
 0.040000 0.040000 0.000000 
 0.060000 0.040000 0.000000 
 0.080000 0.040000 0.000000 
 0.100000 0.040000 0.000000 
 0.120000 0.040000 0.000000 
 0.140000 0.040000 0.000000 
 0.160000 0.040000 0.000000 
 0.180000 0.040000 0.000000 
 0.200000 0.040000 0.000000 
 0.220000 0.040000 0.000000 
 0.240000 0.040000 0.000000 
 0.260000 0.040000 0.000000 
 0.280000 0.040000 0.000000 
 0.300000 0.040000 0.000000 
 0.320000 0.040000 0.000000 
 0.340000 0.040000 0.000000 
 0.360000 0.040000 0.000000 
 0.380000 0.040000 0.000000 
 0.400000 0.040000 0.000000 
 0.420000 0.040000 0.000000 
 0.440000 0.040000 0.000000 
 0.460000 0.040000 0.000000 
 0.480000 0.040000 0.000000 
 0.500000 0.040000 0.000000 
 0.520000 0.040000 0.000000 
 0.540000 0.040000 0.000000 
 0.560000 0.040000 0.000000 
 0.580000 0.040000 0.000000 
 0.600000 0.040000 0.000000 
 0.620000 0.040000 0.000000 
 0.640000 0.040000 0.000000 
 0.660000 0.040000 0.000000 
 0.680000 0.040000 0.000000 
 0.700000 0.040000 0.000000 
 0.720000 0.040000 0.000000 
 0.740000 0.040000 0.000000 
 0.760000 0.040000 0.000000 
 0.780000 0.040000 0.000000 
 0.800000 0.040000 0.000000 
 0.820000 0.040000 0.000000 
 0.840000 0.040000 0.000000 
 0.860000 0.040000 0.000000 
 0.880000 0.040000 0.000000 
 0.900000 0.040000 0.000000 
 0.920000 0.040000 0.000000 
 0.940000 0.040000 0.000000 
 0.960000 0.040000 0.000000 
 0.980000 0.040000 0.000000 
 1.000000 0.040000 0.000000 
 0.000000 0.060000 0.000000 
 0.020000 0.060000 0.000000 
 0.040000 0.060000 0.000000 
 0.060000 0.060000 0.000000 
 0.080000 0.060000 0.000000 
 0.100000 0.060000 0.000000 
 0.120000 0.060000 0.000000 
 0.140000 0.060000 0.000000 
 0.160000 0.060000 0.000000 
 0.180000 0.060000 0.000000 
 0.200000 0.060000 0.000000 
 0.220000 0.060000 0.000000 
 0.240000 0.060000 0.000000 
 0.260000 0.060000 0.000000 
 0.280000 0.060000 0.000000 
 0.300000 0.060000 0.000000 
 0.320000 0.060000 0.000000 
 0.340000 0.060000 0.000000 
 0.360000 0.060000 0.000000 
 0.380000 0.060000 0.000000 
 0.400000 0.060000 0.000000 
 0.420000 0.060000 0.000000 
 0.440000 0.060000 0.000000 
 0.460000 0.060000 0.000000 
 0.480000 0.060000 0.000000 
 0.500000 0.060000 0.000000 
 0.520000 0.060000 0.000000 
 0.540000 0.060000 0.000000 
 0.560000 0.060000 0.000000 
 0.580000 0.060000 0.000000 
 0.600000 0.060000 0.000000 
 0.620000 0.060000 0.000000 
 0.640000 0.060000 0.000000 
 0.660000 0.060000 0.000000 
 0.680000 0.060000 0.000000 
 0.700000 0.060000 0.000000 
 0.720000 0.060000 0.000000 
 0.740000 0.060000 0.000000 
 0.760000 0.060000 0.000000 
 0.780000 0.060000 0.000000 
 0.800000 0.060000 0.000000 
 0.820000 0.060000 0.000000 
 0.840000 0.060000 0.000000 
 0.860000 0.060000 0.000000 
 0.880000 0.060000 0.000000 
 0.900000 0.060000 0.000000 
 0.920000 0.060000 0.000000 
 0.940000 0.060000 0.000000 
 0.960000 0.060000 0.000000 
 0.980000 0.060000 0.000000 
 1.000000 0.060000 0.000000 
 0.000000 0.080000 0.000000 
 0.020000 0.080000 0.000000 
 0.040000 0.080000 0.000000 
 0.060000 0.080000 0.000000 
 0.080000 0.080000 0.000000 
 0.100000 0.080000 0.000000 
 0.120000 0.080000 0.000000 
 0.140000 0.080000 0.000000 
 0.160000 0.080000 0.000000 
 0.180000 0.080000 0.000000 
 0.200000 0.080000 0.000000 
 0.220000 0.080000 0.000000 
 0.240000 0.080000 0.000000 
 0.260000 0.080000 0.000000 
 0.280000 0.080000 0.000000 
 0.300000 0.080000 0.000000 
 0.320000 0.080000 0.000000 
 0.340000 0.080000 0.000000 
 0.360000 0.080000 0.000000 
 0.380000 0.080000 0.000000 
 0.400000 0.080000 0.000000 
 0.420000 0.080000 0.000000 
 0.440000 0.080000 0.000000 
 0.460000 0.080000 0.000000 
 0.480000 0.080000 0.000000 
 0.500000 0.080000 0.000000 
 0.520000 0.080000 0.000000 
 0.540000 0.080000 0.000000 
 0.560000 0.080000 0.000000 
 0.580000 0.080000 0.000000 
 0.600000 0.080000 0.000000 
 0.620000 0.080000 0.000000 
 0.640000 0.080000 0.000000 
 0.660000 0.080000 0.000000 
 0.680000 0.080000 0.000000 
 0.700000 0.080000 0.000000 
 0.720000 0.080000 0.000000 
 0.740000 0.080000 0.000000 
 0.760000 0.080000 0.000000 
 0.780000 0.080000 0.000000 
 0.800000 0.080000 0.000000 
 0.820000 0.080000 0.000000 
 0.840000 0.080000 0.000000 
 0.860000 0.080000 0.000000 
 0.880000 0.080000 0.000000 
 0.900000 0.080000 0.000000 
 0.920000 0.080000 0.000000 
 0.940000 0.080000 0.000000 
 0.960000 0.080000 0.000000 
 0.980000 0.080000 0.000000 
 1.000000 0.080000 0.000000 
 0.000000 0.100000 0.000000 
 0.020000 0.100000 0.000000 
 0.040000 0.100000 0.000000 
 0.060000 0.100000 0.000000 
 0.080000 0.100000 0.000000 
 0.100000 0.100000 0.000000 
 0.120000 0.100000 0.000000 
 0.140000 0.100000 0.000000 
 0.160000 0.100000 0.000000 
 0.180000 0.100000 0.000000 
 0.200000 0.100000 0.000000 
 0.220000 0.100000 0.000000 
 0.240000 0.100000 0.000000 
 0.260000 0.100000 0.000000 
 0.280000 0.100000 0.000000 
 0.300000 0.100000 0.000000 
 0.320000 0.100000 0.000000 
 0.340000 0.100000 0.000000 
 0.360000 0.100000 0.000000 
 0.380000 0.100000 0.000000 
 0.400000 0.100000 0.000000 
 0.420000 0.100000 0.000000 
 0.440000 0.100000 0.000000 
 0.460000 0.100000 0.000000 
 0.480000 0.100000 0.000000 
 0.500000 0.100000 0.000000 
 0.520000 0.100000 0.000000 
 0.540000 0.100000 0.000000 
 0.560000 0.100000 0.000000 
 0.580000 0.100000 0.000000 
 0.600000 0.100000 0.000000 
 0.620000 0.100000 0.000000 
 0.640000 0.100000 0.000000 
 0.660000 0.100000 0.000000 
 0.680000 0.100000 0.000000 
 0.700000 0.100000 0.000000 
 0.720000 0.100000 0.000000 
 0.740000 0.100000 0.000000 
 0.760000 0.100000 0.000000 
 0.780000 0.100000 0.000000 
 0.800000 0.100000 0.000000 
 0.820000 0.100000 0.000000 
 0.840000 0.100000 0.000000 
 0.860000 0.100000 0.000000 
 0.880000 0.100000 0.000000 
 0.900000 0.100000 0.000000 
 0.920000 0.100000 0.000000 
 0.940000 0.100000 0.000000 
 0.960000 0.100000 0.000000 
 0.980000 0.100000 0.000000 
 1.000000 0.100000 0.000000 
 0.000000 0.120000 0.000000 
 0.020000 0.120000 0.000000 
 0.040000 0.120000 0.000000 
 0.060000 0.120000 0.000000 
 0.080000 0.120000 0.000000 
 0.100000 0.120000 0.000000 
 0.120000 0.120000 0.000000 
 0.140000 0.120000 0.000000 
 0.160000 0.120000 0.000000 
 0.180000 0.120000 0.000000 
 0.200000 0.120000 0.000000 
 0.220000 0.120000 0.000000 
 0.240000 0.120000 0.000000 
 0.260000 0.120000 0.000000 
 0.280000 0.120000 0.000000 
 0.300000 0.120000 0.000000 
 0.320000 0.120000 0.000000 
 0.340000 0.120000 0.000000 
 0.360000 0.120000 0.000000 
 0.380000 0.120000 0.000000 
 0.400000 0.120000 0.000000 
 0.420000 0.120000 0.000000 
 0.440000 0.120000 0.000000 
 0.460000 0.120000 0.000000 
 0.480000 0.120000 0.000000 
 0.500000 0.120000 0.000000 
 0.520000 0.120000 0.000000 
 0.540000 0.120000 0.000000 
 0.560000 0.120000 0.000000 
 0.580000 0.120000 0.000000 
 0.600000 0.120000 0.000000 
[...]
<PointData  Scalars="U"> 
<DataArray  type="Float64"  Name="U"  format="ascii"> 
 0.000000e+00
 0.000000e+00
 0.000000e+00
 0.000000e+00
 0.000000e+00
 0.000000e+00
 0.000000e+00
 0.000000e+00
 0.000000e+00
 0.000000e+00
 0.000000e+00
 0.000000e+00
 0.000000e+00
 0.000000e+00
 0.000000e+00
 0.000000e+00
 0.000000e+00
 0.000000e+00
 0.000000e+00
 0.000000e+00
 0.000000e+00
 0.000000e+00
 0.000000e+00
 0.000000e+00
 0.000000e+00
 0.000000e+00
 0.000000e+00
 0.000000e+00
 0.000000e+00
 0.000000e+00
 0.000000e+00
 0.000000e+00
 0.000000e+00
 0.000000e+00
 0.000000e+00
 0.000000e+00
 0.000000e+00
 0.000000e+00
 0.000000e+00
 0.000000e+00
 0.000000e+00
 0.000000e+00
 0.000000e+00
 0.000000e+00
 0.000000e+00
 0.000000e+00
 0.000000e+00
 0.000000e+00
 0.000000e+00
 0.000000e+00
 0.000000e+00
 0.000000e+00
 2.503800e-08
 1.544778e-07
 2.245207e-07
 1.745538e-05
 -2.625869e-07
 -2.139751e-07
 -1.455359e-07
 -2.471819e-08
 2.125337e-07
 1.980728e-07
 1.629189e-05
 -2.922202e-07
 4.281834e-07
 -2.505056e-07
 -1.268709e-07
 7.111966e-08
 -2.776754e-07
 1.598285e-05
 -3.815829e-06
 -3.937712e-06
 -1.332807e-06
 -6.631754e-07
 -4.054458e-07
 -3.159222e-07
 -3.512111e-07
 -3.545241e-07
 -7.801206e-08
 1.590406e-07
 1.155141e-07
 4.109093e-08
 6.309115e-09
 -8.738597e-09
 -1.522896e-08
 -1.762030e-08
 -1.789419e-08
 -1.711971e-08
 -1.597873e-08
 -1.500507e-08
 -1.475491e-08
 -1.598172e-08
 -1.989040e-08
 -2.871177e-08
 -4.756674e-08
 -9.043662e-08
 -1.897324e-07
 -2.234711e-07
 2.860396e-08
 2.292909e-07
 1.291282e-07
 0.000000e+00
 0.000000e+00
 -5.126255e-08
 8.789892e-08
 9.576551e-07
 1.324553e-07
 -1.394242e-06
 -4.395187e-07
 -3.280267e-07
 -2.043197e-07
 3.829508e-07
 1.396438e-06
 3.083765e-07
 1.608453e-05
 -7.045378e-07
 -1.698472e-06
 -3.836048e-07
 5.796839e-07
 2.721140e-07
 -1.437512e-06
 -3.491118e-06
 -2.428463e-06
 -1.621391e-06
 -1.005240e-06
 -6.681439e-07
 -5.147101e-07
 -5.648327e-07
 -1.568397e-06
 -2.018370e-07
 7.641045e-07
 1.762229e-07
 4.076032e-08
 -4.738475e-09
 -2.503344e-08
 -3.422035e-08
 -3.722875e-08
 -3.677806e-08
 -3.458271e-08
 -3.179372e-08
 -2.931787e-08
 -2.810173e-08
 -2.942611e-08
 -3.524706e-08
 -4.861974e-08
 -7.468083e-08
 -1.273982e-07
 -2.752625e-07
 -1.310568e-06
 2.596071e-08
 9.221918e-07
 2.401614e-07
 0.000000e+00
 0.000000e+00
 -1.257588e-07
 -1.128441e-06
 2.377957e-07
 7.743349e-07
 -3.898074e-07
 -3.960897e-07
 -3.297753e-07
 -1.449152e-06
 1.855016e-07
 1.740866e-06
 1.551095e-06
 -1.083435e-07
 -1.727041e-06
 -7.884830e-07
 1.679815e-05
 -5.808644e-07
 -6.483176e-07
 -1.228871e-06
 -1.814971e-06
 -1.818197e-06
 -1.465311e-06
 -1.081448e-06
 -7.646008e-07
 -5.423465e-07
 -4.079624e-07
 -3.814058e-07
 1.714632e-05
 -1.825697e-07
 -3.848890e-08
 -2.066481e-08
 -3.577005e-08
 -5.152080e-08
 -5.910594e-08
 -6.013899e-08
 -5.731502e-08
 -5.259958e-08
 -4.730190e-08
 -4.242524e-08
 -3.901884e-08
 -3.855172e-08
 -4.332911e-08
 -5.663452e-08
 -8.051174e-08
 -1.014482e-07
 -6.284012e-08
 5.593341e-09
 1.754799e-05
 8.825632e-08
 7.010044e-08
 0.000000e+00
 0.000000e+00
 1.237727e-08
 -4.337684e-07
 1.744773e-05
 2.641966e-07
 -1.669677e-06
 -3.439192e-07
 6.488997e-07
 -1.176939e-06
 1.641526e-05
 1.168492e-06
 1.337967e-06
 9.031511e-08
 -4.375997e-07
 -2.799600e-08
 -9.558218e-07
 -2.055096e-06
 -9.143294e-07
 -1.078959e-06
 -1.358383e-06
 -1.434874e-06
 -1.318573e-06
 -1.079199e-06
 -7.634582e-07
 -4.712792e-07
 -2.162859e-07
 3.812872e-07
 -5.168068e-07
 -1.520177e-06
 -1.826643e-07
 -4.909587e-08
 -7.173826e-08
 -8.738260e-08
 -9.055081e-08
 -8.675023e-08
 -7.963090e-08
 -7.114857e-08
 -6.239611e-08
 -5.413017e-08
 -4.713815e-08
 -4.263525e-08
 -4.291023e-08
 -5.252693e-08
 -7.990219e-08
 -1.310271e-07
 7.990512e-09
 9.313651e-07
 2.627162e-07
 -1.113258e-06
 -1.384823e-07
 0.000000e+00
 0.000000e+00
 1.760313e-05
 7.015905e-07
 1.714309e-05
 -1.904742e-06
 -1.964420e-06
 1.703543e-05
 8.313516e-07
 1.031595e-06
 1.752108e-05
 1.618932e-05
 -2.881558e-07
 -3.161657e-07
 -4.663611e-07
 -6.813387e-07
 -2.045030e-06
 -1.079202e-06
 -2.525134e-07
 -9.247762e-07
 -1.157931e-06
 -1.248881e-06
 -1.283134e-06
 -1.172858e-06
 -7.255840e-07
 -3.098606e-07
 -1.996313e-07
 -3.017622e-07
 -1.581270e-06
 -5.083640e-07
 4.648624e-07
 -3.675812e-08
 -1.252190e-07
 -1.359515e-07
 -1.285117e-07
 -1.164032e-07
 -1.031762e-07
 -8.991596e-08
 -7.700817e-08
 -6.462615e-08
 -5.293190e-08
 -4.229532e-08
 -3.384343e-08
 -3.138426e-08
 -4.952947e-08
 -1.541959e-07
 -1.117437e-06
 2.629519e-07
 9.359139e-07
 2.280552e-08
 -9.368576e-08
 0.000000e+00
 0.000000e+00
 2.514957e-08
 -4.601771e-07
 -5.292177e-07
 -1.869828e-06
 -1.358443e-07
 1.686046e-05
 -1.335255e-06
 9.314065e-07
 8.087384e-07
 -1.614358e-06
 -1.923749e-06
 -7.237298e-07
 -5.815385e-07
 -5.992411e-07
 -7.639696e-07
 1.653640e-05
 -1.018298e-06
 -1.039525e-06
 -1.088801e-06
 -1.121890e-06
 -1.220546e-06
 -2.183289e-06
 -7.364251e-07
 3.191618e-07
 -1.717118e-07
 -2.233137e-07
 -3.053975e-07
 1.709947e-05
 -3.472795e-07
 -2.660164e-07
 -2.316048e-07
 -1.976747e-07
 -1.699833e-07
 -1.468709e-07
 -1.266633e-07
 -1.083012e-07
 -9.109211e-08
 -7.446213e-08
 -5.776710e-08
 -4.010355e-08
 -2.003444e-08
 4.894182e-09
 3.918428e-08
 9.326263e-08
 1.010678e-07
 1.755306e-05
 8.984706e-09
 -4.939129e-08
 -6.208968e-08
 0.000000e+00
 0.000000e+00
 -5.488045e-08
 -2.175406e-07
 -4.814751e-07
 -6.567858e-07
 -2.072659e-08
 -8.793920e-07
 -2.043480e-06
 -2.116864e-07
 3.122772e-07
 -2.694201e-07
 -7.185880e-07
 -6.993896e-07
 -5.847867e-07
 -4.374018e-07
 1.350170e-07
 -8.566996e-07
 -2.236802e-06
 -1.202181e-06
 -1.040364e-06
 -9.613465e-07
 -8.780788e-07
 -8.289421e-07
 1.672278e-05
 -6.157822e-07
 -4.125419e-07
 -1.415313e-07
 5.754470e-07
 -3.042847e-07
 -1.608388e-06
 -5.225509e-07
 -3.321434e-07
 -2.526209e-07
 -2.069787e-07
 -1.745468e-07
 -1.483641e-07
 -1.255512e-07
 -1.045852e-07
 -8.432215e-08
 -6.348723e-08
 -4.015924e-08
 -1.078393e-08
 3.249689e-08
 1.109906e-07
 2.982972e-07
 9.504821e-07
 3.016125e-08
 -1.320392e-06
 -2.796599e-07
 -1.031577e-07
 0.000000e+00
 0.000000e+00
 -1.126508e-07
 -2.505981e-07
 -4.122357e-07
 -6.191142e-07
 -1.760511e-06
 -1.055917e-06
 -2.650900e-06
 -6.299544e-07
 1.329360e-06
 9.714764e-08
 -4.086697e-07
 -5.925737e-07
 -5.951228e-07
 -5.263776e-07
 -5.058510e-07
 -7.880868e-07
 -1.098651e-06
 -1.074846e-06
 -9.383948e-07
 -8.081193e-07
 -5.853776e-07
 1.032396e-07
 -7.617644e-07
 -2.011875e-06
 -7.825052e-07
 -3.220218e-07
 -4.128987e-08
 -2.085115e-07
 -4.904519e-07
 -4.677719e-07
 -3.510680e-07
 -2.800261e-07
 -2.324696e-07
 -1.965201e-07
 -1.668846e-07
 -1.410068e-07
 -1.173538e-07
 -9.465693e-08
 -7.146403e-08
 -4.567195e-08
 -1.373264e-08
 3.092046e-08
 1.004355e-07
 2.090791e-07
 2.699979e-07
 2.280871e-08
 -2.673336e-07
 -2.362592e-07
 -1.026264e-07
 0.000000e+00
 0.000000e+00
 -1.389723e-07
 -2.576724e-07
 -3.362368e-07
 -3.630192e-07
 -4.403058e-07
 1.689990e-05
 -8.835429e-07
 3.295809e-05
 -6.837999e-07
 2.275439e-07
 -4.821951e-07
 -6.472907e-07
 -6.640136e-07
 -6.473672e-07
 -6.707978e-07
 -7.745714e-07
 -8.793960e-07
 -8.897060e-07
 -8.246293e-07
 -7.228279e-07
 -5.875272e-07
 -5.124934e-07
 -7.714052e-07
 -1.115690e-06
 -1.006703e-06
 -4.311994e-07
 -1.053452e-08
 -8.629883e-08
 -2.707864e-07
 -3.407369e-07
 -3.248889e-07
 -2.861308e-07
 -2.473543e-07
 -2.125764e-07
 -1.817949e-07
 -1.542742e-07
 -1.291365e-07
 -1.053874e-07
 -8.181989e-08
 -5.686771e-08
 -2.845341e-08
 5.832566e-09
 4.652684e-08
 8.201462e-08
 7.060282e-08
 -2.240658e-08
 -1.195277e-07
 -1.279539e-07
 -7.181176e-08
 0.000000e+00
 0.000000e+00
 -1.854779e-07
 -3.056441e-07
 -3.172772e-07
 -1.485611e-07
 5.731776e-07
 -4.738239e-08
 -1.218332e-07
 -9.453019e-07
 1.400890e-05
 -1.293482e-06
 -9.294008e-07
 -8.237242e-07
 -7.625949e-07
 -7.280947e-07
 -7.266396e-07
 -7.556790e-07
 -7.844480e-07
 -7.798021e-07
 -7.379333e-07
 -6.743697e-07
 -6.162700e-07
 -6.234180e-07
 -7.700134e-07
 -1.089540e-06
 -2.148080e-06
 -4.673976e-07
 7.411819e-07
 5.766523e-08
 -2.067478e-07
 -3.001691e-07
 -3.120050e-07
 -2.900481e-07
 -2.578046e-07
 -2.245652e-07
 -1.934311e-07
 -1.651412e-07
 -1.394964e-07
 -1.158776e-07
 -9.347058e-08
 -7.143237e-08
 -4.917639e-08
 -2.710764e-08
 -8.420126e-09
 -1.805279e-09
 -1.933483e-08
 -5.911061e-08
 -9.055379e-08
 -8.500141e-08
 -4.816333e-08
 0.000000e+00
 0.000000e+00
 -3.032072e-07
 -4.605906e-07
 -4.503937e-07
 -3.009203e-07
 -1.121281e-07
 -1.122335e-07
 -1.343829e-07
 2.668587e-08
 -1.358364e-06
 -2.577122e-06
 -1.264970e-06
 -9.669994e-07
 -8.381629e-07
 -7.742591e-07
 -7.454765e-07
 -7.364031e-07
 -7.296614e-07
 -7.101267e-07
 -6.734983e-07
 -6.268084e-07
 -5.863803e-07
 -5.764902e-07
 -6.219789e-07
 -7.702248e-07
 -1.841359e-06
 1.697552e-05
 4.609486e-07
 -1.304458e-07
 -2.970811e-07
 -3.359889e-07
 -3.287115e-07
 -3.019722e-07
 -2.683570e-07
 -2.341151e-07
 -2.020879e-07
 -1.732998e-07
 -1.477991e-07
 -1.251488e-07
 -1.047843e-07
 -8.635076e-08
 -7.012803e-08
 -5.765615e-08
 -5.241781e-08
 -5.937801e-08
 -8.034405e-08
 -1.042981e-07
 -1.065699e-07
 -7.557863e-08
 -3.312036e-08
 0.000000e+00
 0.000000e+00
 -5.963352e-07
 -7.888852e-07
 -7.202008e-07
 -5.688275e-07
 -4.344652e-07
 -3.800252e-07
 -3.992092e-07
 -5.552548e-07
 -9.809298e-07
 -1.283392e-06
 -1.173526e-06
 -9.772649e-07
 -8.579794e-07
 -7.868425e-07
 -7.436627e-07
 -7.150551e-07
 -6.898241e-07
 -6.594835e-07
 -6.205467e-07
 -5.746505e-07
 -5.258229e-07
 -4.736024e-07
 -3.961784e-07
 -2.013900e-07
 4.268492e-07
 1.699488e-05
 -1.764482e-06
 -6.532779e-07
 -4.852198e-07
 -4.122312e-07
 -3.630334e-07
 -3.197834e-07
 -2.790017e-07
 -2.411683e-07
 -2.073516e-07
 -1.780932e-07
 -1.532311e-07
 -1.321666e-07
 -1.142667e-07
 -9.926242e-08
 -8.767302e-08
 -8.133283e-08
 -8.390826e-08
 -1.006602e-07
 -1.349878e-07
 -1.733100e-07
 -1.637480e-07
 -7.726172e-08
 -1.294027e-09
 0.000000e+00
 0.000000e+00
 -1.435629e-06
 -1.355228e-06
 -1.059057e-06
 -8.186257e-07
 -6.581229e-07
 -5.811091e-07
 -5.878013e-07
 -6.876713e-07
 -8.600503e-07
 -9.855792e-07
 -9.824825e-07
 -9.083941e-07
 -8.320849e-07
 -7.725145e-07
 -7.274623e-07
 -6.907320e-07
 -6.560137e-07
 -6.183657e-07
 -5.750441e-07
 -5.249273e-07
 -4.656669e-07
 -3.870312e-07
 -2.559307e-07
 2.178572e-08
 7.292081e-07
 -4.154586e-07
 -2.007558e-06
 -8.992384e-07
 -6.043239e-07
 -4.710660e-07
 -3.932750e-07
 -3.356374e-07
 -2.867452e-07
 -2.440933e-07
 -2.079281e-07
 -1.784145e-07
 -1.548606e-07
 -1.360802e-07
 -1.209813e-07
 -1.089760e-07
 -1.002888e-07
 -9.642939e-08
 -1.011547e-07
 -1.224395e-07
 -1.764330e-07
 -2.906505e-07
 -3.281163e-07
 -6.340050e-08
 1.386567e-07
 0.000000e+00
 0.000000e+00
 -3.498322e-06
 -1.957489e-06
 -1.325457e-06
 -9.878842e-07
 -7.968265e-07
 -7.016150e-07
 -6.814232e-07
 -7.214797e-07
 -7.935188e-07
 -8.500837e-07
 -8.595758e-07
 -8.306083e-07
 -7.870389e-07
 -7.432747e-07
 -7.029508e-07
 -6.646344e-07
 -6.255405e-07
 -5.832524e-07
 -5.362272e-07
 -4.832290e-07
 -4.215863e-07
 -3.443862e-07
 -2.386906e-07
 -9.877782e-08
 -4.870424e-08
 -3.817725e-07
 -7.618715e-07
 -7.467841e-07
 -5.920859e-07
 -4.837436e-07
 -4.066870e-07
 -3.440455e-07
 -2.886294e-07
 -2.404599e-07
 -2.016783e-07
 -1.726902e-07
 -1.517398e-07
 -1.363997e-07
 -1.247329e-07
 -1.155731e-07
 -1.084259e-07
 -1.035894e-07
 -1.031181e-07
 -1.139307e-07
 -1.580619e-07
 -3.162001e-07
 -1.379974e-06
 -7.112948e-08
 7.950759e-07
 0.000000e+00
 0.000000e+00
 -3.692604e-06
 -1.934995e-06
 -1.339809e-06
 -1.023343e-06
 -8.436862e-07
 -7.482185e-07
 -7.123810e-07
 -7.183578e-07
 -7.454779e-07
 -7.704007e-07
 -7.773668e-07
 -7.649757e-07
 -7.402944e-07
 -7.098443e-07
 -6.762583e-07
 -6.394063e-07
 -5.984359e-07
 -5.529603e-07
 -5.031789e-07
 -4.494720e-07
 -3.918395e-07
 -3.298089e-07
 -2.658192e-07
 -2.191013e-07
 -2.441731e-07
 -3.792496e-07
 -5.251250e-07
 -5.651927e-07
 -5.251219e-07
 -4.663269e-07
 -4.074881e-07
 -3.465013e-07
 -2.835810e-07
 -2.270300e-07
 -1.852196e-07
 -1.588365e-07
 -1.431195e-07
 -1.331846e-07
 -1.260835e-07
 -1.202681e-07
 -1.144962e-07
 -1.070550e-07
 -9.573446e-08
 -7.880069e-08
 -5.561068e-08
 -2.065043e-08
 -3.316135e-08
 1.743632e-05
 -1.871010e-08
 0.000000e+00
 0.000000e+00
 -1.167307e-06
 -1.325434e-06
 -1.114131e-06
 -9.336748e-07
 -8.102260e-07
 -7.360933e-07
 -7.007928e-07
 -6.932619e-07
 -7.010184e-07
 -7.115492e-07
 -7.159909e-07
 -7.113217e-07
 -6.985431e-07
 -6.790756e-07
 -6.527417e-07
 -6.184080e-07
 -5.759468e-07
 -5.270079e-07
 -4.739912e-07
 -4.194867e-07
 -3.666992e-07
 -3.194233e-07
 -2.833290e-07
 -2.700776e-07
 -2.959117e-07
 -3.609659e-07
 -4.303577e-07
 -4.662924e-07
 -4.662452e-07
 -4.462152e-07
 -4.112451e-07
 -3.527161e-07
 -2.721419e-07
 -1.971870e-07
 -1.523610e-07
 -1.344306e-07
 -1.291121e-07
 -1.273769e-07
 -1.261889e-07
 -1.248211e-07
 -1.221185e-07
 -1.144698e-07
 -9.427736e-08
 -4.969502e-08
 3.932685e-08
 2.403572e-07
 9.108270e-07
 3.099937e-08
 -1.231578e-06
 0.000000e+00
 0.000000e+00
 -5.497679e-07
 -8.065844e-07
 -8.344238e-07
 -7.843356e-07
 -7.274330e-07
 -6.850745e-07
 -6.611190e-07
 -6.527855e-07
 -6.544419e-07
 -6.599017e-07
 -6.644500e-07
 -6.657891e-07
 -6.631290e-07
 -6.549695e-07
 -6.374357e-07
 -6.059041e-07
 -5.600341e-07
 -5.051212e-07
 -4.464309e-07
 -3.878520e-07
 -3.362279e-07
 -2.989400e-07
 -2.794717e-07
 -2.795617e-07
 -3.004742e-07
 -3.375570e-07
 -3.772430e-07
 -4.066481e-07
 -4.245838e-07
 -4.378826e-07
 -4.403111e-07
 -3.872695e-07
 -2.543115e-07
 -1.308549e-07
 -9.107641e-08
 -9.884498e-08
 -1.125779e-07
 -1.213570e-07
 -1.263870e-07
 -1.302951e-07
 -1.339725e-07
 -1.337146e-07
 -1.165314e-07
 -6.025428e-08
 4.999804e-08
 2.060443e-07
 3.037261e-07
 9.381099e-08
 -1.360437e-07
 0.000000e+00
 0.000000e+00
 -3.132637e-07
 -5.213059e-07
 -6.132604e-07
 -6.348150e-07
 -6.277077e-07
 -6.147025e-07
 -6.053714e-07
 -6.022246e-07
 -6.043380e-07
 -6.096277e-07
 -6.164116e-07
 -6.241282e-07
 -6.327200e-07
 -6.399679e-07
 -6.369527e-07
 -6.089902e-07
 -5.529693e-07
 -4.865109e-07
 -4.195811e-07
 -3.494302e-07
 -2.904661e-07
 -2.603889e-07
 -2.562581e-07
 -2.671893e-07
 -2.868845e-07
 -3.115915e-07
 -3.368883e-07
 -3.602064e-07
 -3.861675e-07
 -4.311875e-07
 -5.248041e-07
 -5.312987e-07
 -2.226482e-07
 4.663028e-08
 1.383120e-08
 -6.362199e-08
 -1.024298e-07
 -1.191538e-07
 -1.274257e-07
 -1.353220e-07
 -1.481577e-07
 -1.676928e-07
 -1.790725e-07
 -1.294946e-07
 1.182905e-08
 1.510095e-07
 1.785407e-07
 9.526336e-08
 9.315992e-09
 0.000000e+00
 0.000000e+00
 -2.032086e-07
 -3.615589e-07
 -4.600489e-07
 -5.103556e-07
 -5.317575e-07
 -5.395562e-07
 -5.429007e-07
 -5.462259e-07
 -5.511469e-07
 -5.580823e-07
 -5.675800e-07
 -5.813157e-07
 -6.024589e-07
 -6.335896e-07
 -6.634077e-07
 -6.453842e-07
 -5.540853e-07
 -4.644949e-07
 -4.010016e-07
 -3.006601e-07
 -2.107062e-07
 -1.948564e-07
 -2.192903e-07
 -2.464432e-07
 -2.679598e-07
 -2.852680e-07
 -2.997624e-07
 -3.130784e-07
 -3.314106e-07
 -3.761887e-07
 -5.272717e-07
 -1.574465e-06
 -2.339989e-07
 6.982085e-07
 7.784581e-08
 -7.099529e-08
 -1.128759e-07
 -1.244797e-07
 -1.284666e-07
 -1.350647e-07
 -1.538414e-07
 -2.007652e-07
 -3.026712e-07
 -3.211558e-07
 -2.607279e-08
 2.301863e-07
 1.861364e-07
 9.623201e-08
 3.984954e-08
 0.000000e+00
 0.000000e+00
 -1.442561e-07
 -2.665516e-07
 -3.559377e-07
 -4.138540e-07
 -4.483055e-07
 -4.680773e-07
 -4.799888e-07
 -4.884400e-07
 -4.959711e-07
 -5.041760e-07
 -5.148038e-07
 -5.312152e-07
 -5.608488e-07
 -6.199702e-07
 -7.380525e-07
 -7.833092e-07
 -5.405392e-07
 -3.893458e-07
 -4.530339e-07
 -2.436648e-07
 -3.090855e-08
 -9.307654e-08
 -1.856477e-07
 -2.323297e-07
 -2.529967e-07
 -2.617163e-07
 -2.644706e-07
 -2.629134e-07
 -2.568698e-07
 -2.446870e-07
 -2.177061e-07
 -2.322714e-07
 1.724188e-05
 -2.016134e-07
 -1.576836e-07
 -1.579219e-07
 -1.473276e-07
 -1.358912e-07
 -1.268602e-07
 -1.236443e-07
 -1.337534e-07
 -1.792052e-07
 -3.406780e-07
 -1.410346e-06
 -1.075253e-07
 7.807047e-07
 1.537697e-07
 6.083539e-08
 5.467503e-08
 0.000000e+00
 0.000000e+00
 -1.094455e-07
 -2.067397e-07
 -2.843593e-07
 -3.408446e-07
 -3.791417e-07
 -4.040310e-07
 -4.202194e-07
 -4.314126e-07
 -4.401397e-07
 -4.480913e-07
 -4.568592e-07
 -4.692647e-07
 -4.924750e-07
 -5.483277e-07
 -7.177877e-07
 -1.795850e-06
 -5.182649e-07
 2.416320e-07
 -1.447820e-06
 -2.764914e-07
 5.972741e-07
 -4.546906e-08
 -2.012814e-07
 -2.422736e-07
 -2.486185e-07
 -2.434516e-07
 -2.332378e-07
 -2.170951e-07
 -1.878013e-07
 -1.237843e-07
 5.093913e-08
 7.001478e-07
 -2.011973e-07
 -1.509924e-06
 -4.315156e-07
 -2.514738e-07
 -1.819714e-07
 -1.449616e-07
 -1.199937e-07
 -1.007152e-07
 -8.500965e-08
 -7.172008e-08
 -5.491581e-08
 -9.803449e-08
 1.731299e-05
 -2.572700e-07
 -2.689362e-07
 -2.871498e-08
 1.558109e-07
 0.000000e+00
 0.000000e+00
 -8.766634e-08
 -1.677095e-07
 -2.346698e-07
 -2.863038e-07
 -3.233439e-07
 -3.484984e-07
 -3.652356e-07
 -3.767012e-07
 -3.850547e-07
 -3.913585e-07
 -3.958620e-07
 -3.983473e-07
 -3.981926e-07
 -3.934326e-07
 -3.747990e-07
 -3.975899e-07
 1.707086e-05
 -3.661275e-07
 -3.584115e-07
 1.709461e-05
 -3.557551e-07
 -3.112278e-07
 -3.038235e-07
 -2.801383e-07
 -2.535320e-07
 -2.291698e-07
 -2.070629e-07
 -1.826352e-07
 -1.471474e-07
 -8.620371e-08
 1.704858e-08
 7.912052e-08
 -1.579653e-07
 -4.324097e-07
 -3.911091e-07
 -2.642707e-07
 -1.906375e-07
 -1.437422e-07
 -1.080126e-07
 -7.439751e-08
 -3.349670e-08
 3.579534e-08
 2.068679e-07
 8.363646e-07
 -1.223910e-07
 -1.606055e-06
 -1.610732e-06
 -1.424192e-07
 7.734906e-07
 0.000000e+00
 0.000000e+00
 -7.390741e-08
 -1.423378e-07
 -2.008230e-07
 -2.466913e-07
 -2.795546e-07
 -3.013169e-07
 -3.153420e-07
 -3.249074e-07
 -3.318823e-07
 -3.363555e-07
 -3.368352e-07
 -3.299272e-07
 -3.077899e-07
 -2.481533e-07
 -7.270930e-08
 5.890964e-07
 -2.669305e-07
 -1.422036e-06
 2.822914e-07
 -4.631659e-07
 -1.724154e-06
 -6.226700e-07
 -4.188566e-07
 -3.200414e-07
 -2.553270e-07
 -2.118594e-07
 -1.825887e-07
 -1.583253e-07
 -1.305545e-07
 -9.496474e-08
 -6.126599e-08
 -7.078707e-08
 -1.598416e-07
 -2.547638e-07
 -2.672560e-07
 -2.242115e-07
 -1.749437e-07
 -1.323902e-07
 -9.392730e-08
 -5.394198e-08
 -4.353938e-09
 6.830617e-08
 1.803570e-07
 2.484026e-07
 1.614752e-08
 -2.453732e-07
 -2.382261e-07
 1.733926e-05
 -5.690785e-08
 0.000000e+00
 0.000000e+00
 -6.580101e-08
 -1.272182e-07
 -1.799857e-07
 -2.204913e-07
 -2.471347e-07
 -2.618510e-07
 -2.696403e-07
 -2.753882e-07
 -2.809619e-07
 -2.850802e-07
 -2.846062e-07
 -2.749158e-07
 -2.483301e-07
 -1.906895e-07
 -8.325913e-08
 -4.013870e-09
 -1.992316e-07
 -3.922975e-07
 -3.150222e-07
 -4.558188e-07
 -6.885271e-07
 -6.235166e-07
 -4.609395e-07
 -3.323513e-07
 -2.358414e-07
 -1.797836e-07
 -1.532750e-07
 -1.380958e-07
 -1.235244e-07
 -1.083071e-07
 -1.003465e-07
 -1.137307e-07
 -1.516073e-07
 -1.893173e-07
 -1.992960e-07
 -1.816005e-07
 -1.509036e-07
 -1.166904e-07
 -8.103612e-08
 -4.219237e-08
 3.190297e-09
 5.748464e-08
 1.124296e-07
 1.334706e-07
 1.057868e-07
 1.801361e-07
 8.118600e-07
 -4.290255e-08
 -1.267625e-06
 0.000000e+00
 0.000000e+00
 -6.208761e-08
 -1.208295e-07
 -1.717300e-07
 -2.088049e-07
 -2.272529e-07
 -2.292817e-07
 -2.253753e-07
 -2.254755e-07
 -2.312230e-07
 -2.382057e-07
 -2.411457e-07
 -2.357273e-07
 -2.181822e-07
 -1.864848e-07
 -1.501999e-07
 -1.491903e-07
 -2.200994e-07
 -3.024701e-07
 -3.528370e-07
 -4.381228e-07
 -5.356586e-07
 -5.566557e-07
 -4.764928e-07
 -3.145547e-07
 -1.708409e-07
 -1.171611e-07
 -1.143670e-07
 -1.188137e-07
 -1.186527e-07
 -1.159431e-07
 -1.165548e-07
 -1.258002e-07
 -1.427871e-07
 -1.580890e-07
 -1.614360e-07
 -1.504172e-07
 -1.290612e-07
 -1.018705e-07
 -7.107356e-08
 -3.698537e-08
 6.000234e-10
 4.027373e-08
 7.629041e-08
 1.011991e-07
 1.253442e-07
 1.911132e-07
 2.459099e-07
 3.919777e-08
 -1.662602e-07
 0.000000e+00
 0.000000e+00
 -6.151623e-08
 -1.219469e-07
 -1.773563e-07
 -2.170384e-07
 -2.255707e-07
 -2.025102e-07
 -1.753297e-07
 -1.688475e-07
 -1.802425e-07
 -1.956019e-07
 -2.061004e-07
 -2.087570e-07
 -2.035071e-07
 -1.930848e-07
 -1.859731e-07
 -1.965817e-07
 -2.317615e-07
 -2.784810e-07
 -3.285268e-07