<VTKFile type="UnstructuredGrid"  version="0.1"   >
<UnstructuredGrid>  
<Piece  NumberOfPoints="     2601"  NumberOfCells="     5000">  
<Points>  
<DataArray  type="Float64"  NumberOfComponents="3"  format="ascii">  
 0.000000 0.000000 0.000000 
 0.020000 0.000000 0.000000 
 0.040000 0.000000 0.000000 
 0.060000 0.000000 0.000000 
 0.080000 0.000000 0.000000 
 0.100000 0.000000 0.000000 
 0.120000 0.000000 0.000000 
 0.140000 0.000000 0.000000 
 0.160000 0.000000 0.000000 
 0.180000 0.000000 0.000000 
 0.200000 0.000000 0.000000 
 0.220000 0.000000 0.000000 
 0.240000 0.000000 0.000000 
 0.260000 0.000000 0.000000 
 0.280000 0.000000 0.000000 
 0.300000 0.000000 0.000000 
 0.320000 0.000000 0.000000 
 0.340000 0.000000 0.000000 
 0.360000 0.000000 0.000000 
 0.380000 0.000000 0.000000 
 0.400000 0.000000 0.000000 
 0.420000 0.000000 0.000000 
 0.440000 0.000000 0.000000 
 0.460000 0.000000 0.000000 
 0.480000 0.000000 0.000000 
 0.500000 0.000000 0.000000 
 0.520000 0.000000 0.000000 
 0.540000 0.000000 0.000000 
 0.560000 0.000000 0.000000 
 0.580000 0.000000 0.000000 
 0.600000 0.000000 0.000000 
 0.620000 0.000000 0.000000 
 0.640000 0.000000 0.000000 
 0.660000 0.000000 0.000000 
 0.680000 0.000000 0.000000 
 0.700000 0.000000 0.000000 
 0.720000 0.000000 0.000000 
 0.740000 0.000000 0.000000 
 0.760000 0.000000 0.000000 
 0.780000 0.000000 0.000000 
 0.800000 0.000000 0.000000 
 0.820000 0.000000 0.000000 
 0.840000 0.000000 0.000000 
 0.860000 0.000000 0.000000 
 0.880000 0.000000 0.000000 
 0.900000 0.000000 0.000000 
 0.920000 0.000000 0.000000 
 0.940000 0.000000 0.000000 
 0.960000 0.000000 0.000000 
 0.980000 0.000000 0.000000 
 1.000000 0.000000 0.000000 
 0.000000 0.020000 0.000000 
 0.020000 0.020000 0.000000 
 0.040000 0.020000 0.000000 
 0.060000 0.020000 0.000000 
 0.080000 0.020000 0.000000 
 0.100000 0.020000 0.000000 
 0.120000 0.020000 0.000000 
 0.140000 0.020000 0.000000 
 0.160000 0.020000 0.000000 
 0.180000 0.020000 0.000000 
 0.200000 0.020000 0.000000 
 0.220000 0.020000 0.000000 
 0.240000 0.020000 0.000000 
 0.260000 0.020000 0.000000 
 0.280000 0.020000 0.000000 
 0.300000 0.020000 0.000000 
 0.320000 0.020000 0.000000 
 0.340000 0.020000 0.000000 
 0.360000 0.020000 0.000000 
 0.380000 0.020000 0.000000 
 0.400000 0.020000 0.000000 
 0.420000 0.020000 0.000000 
 0.440000 0.020000 0.000000 
 0.460000 0.020000 0.000000 
 0.480000 0.020000 0.000000 
 0.500000 0.020000 0.000000 
 0.520000 0.020000 0.000000 
 0.540000 0.020000 0.000000 
 0.560000 0.020000 0.000000 
 0.580000 0.020000 0.000000 
 0.600000 0.020000 0.000000 
 0.620000 0.020000 0.000000 
 0.640000 0.020000 0.000000 
 0.660000 0.020000 0.000000 
 0.680000 0.020000 0.000000 
 0.700000 0.020000 0.000000 
 0.720000 0.020000 0.000000 
 0.740000 0.020000 0.000000 
 0.760000 0.020000 0.000000 
 0.780000 0.020000 0.000000 
 0.800000 0.020000 0.000000 
 0.820000 0.020000 0.000000 
 0.840000 0.020000 0.000000 
 0.860000 0.020000 0.000000 
 0.880000 0.020000 0.000000 
 0.900000 0.020000 0.000000 
 0.920000 0.020000 0.000000 
 0.940000 0.020000 0.000000 
 0.960000 0.020000 0.000000 
 0.980000 0.020000 0.000000 
 1.000000 0.020000 0.000000 
 0.000000 0.040000 0.000000 
 0.020000 0.040000 0.000000 
 0.040000 0.040000 0.000000 
 0.060000 0.040000 0.000000 
 0.080000 0.040000 0.000000 
 0.100000 0.040000 0.000000 
 0.120000 0.040000 0.000000 
 0.140000 0.040000 0.000000 
 0.160000 0.040000 0.000000 
 0.180000 0.040000 0.000000 
 0.200000 0.040000 0.000000 
 0.220000 0.040000 0.000000 
 0.240000 0.040000 0.000000 
 0.260000 0.040000 0.000000 
 0.280000 0.040000 0.000000 
 0.300000 0.040000 0.000000 
 0.320000 0.040000 0.000000 
 0.340000 0.040000 0.000000 
 0.360000 0.040000 0.000000 
 0.380000 0.040000 0.000000 
 0.400000 0.040000 0.000000 
 0.420000 0.040000 0.000000 
 0.440000 0.040000 0.000000 
 0.460000 0.040000 0.000000 
 0.480000 0.040000 0.000000 
 0.500000 0.040000 0.000000 
 0.520000 0.040000 0.000000 
 0.540000 0.040000 0.000000 
 0.560000 0.040000 0.000000 
 0.580000 0.040000 0.000000 
 0.600000 0.040000 0.000000 
 0.620000 0.040000 0.000000 
 0.640000 0.040000 0.000000 
 0.660000 0.040000 0.000000 
 0.680000 0.040000 0.000000 
 0.700000 0.040000 0.000000 
 0.720000 0.040000 0.000000 
 0.740000 0.040000 0.000000 
 0.760000 0.040000 0.000000 
 0.780000 0.040000 0.000000 
 0.800000 0.040000 0.000000 
 0.820000 0.040000 0.000000 
 0.840000 0.040000 0.000000 
 0.860000 0.040000 0.000000 
 0.880000 0.040000 0.000000 
 0.900000 0.040000 0.000000 
 0.920000 0.040000 0.000000 
 0.940000 0.040000 0.000000 
 0.960000 0.040000 0.000000 
 0.980000 0.040000 0.000000 
 1.000000 0.040000 0.000000 
 0.000000 0.060000 0.000000 
 0.020000 0.060000 0.000000 
 0.040000 0.060000 0.000000 
 0.060000 0.060000 0.000000 
 0.080000 0.060000 0.000000 
 0.100000 0.060000 0.000000 
 0.120000 0.060000 0.000000 
 0.140000 0.060000 0.000000 
 0.160000 0.060000 0.000000 
 0.180000 0.060000 0.000000 
 0.200000 0.060000 0.000000 
 0.220000 0.060000 0.000000 
 0.240000 0.060000 0.000000 
 0.260000 0.060000 0.000000 
 0.280000 0.060000 0.000000 
 0.300000 0.060000 0.000000 
 0.320000 0.060000 0.000000 
 0.340000 0.060000 0.000000 
 0.360000 0.060000 0.000000 
 0.380000 0.060000 0.000000 
 0.400000 0.060000 0.000000 
 0.420000 0.060000 0.000000 
 0.440000 0.060000 0.000000 
 0.460000 0.060000 0.000000 
 0.480000 0.060000 0.000000 
 0.500000 0.060000 0.000000 
 0.520000 0.060000 0.000000 
 0.540000 0.060000 0.000000 
 0.560000 0.060000 0.000000 
 0.580000 0.060000 0.000000 
 0.600000 0.060000 0.000000 
 0.620000 0.060000 0.000000 
 0.640000 0.060000 0.000000 
 0.660000 0.060000 0.000000 
 0.680000 0.060000 0.000000 
 0.700000 0.060000 0.000000 
 0.720000 0.060000 0.000000 
 0.740000 0.060000 0.000000 
 0.760000 0.060000 0.000000 
 0.780000 0.060000 0.000000 
 0.800000 0.060000 0.000000 
 0.820000 0.060000 0.000000 
 0.840000 0.060000 0.000000 
 0.860000 0.060000 0.000000 
 0.880000 0.060000 0.000000 
 0.900000 0.060000 0.000000 
 0.920000 0.060000 0.000000 
 0.940000 0.060000 0.000000 
 0.960000 0.060000 0.000000 
 0.980000 0.060000 0.000000 
 1.000000 0.060000 0.000000 
 0.000000 0.080000 0.000000 
 0.020000 0.080000 0.000000 
 0.040000 0.080000 0.000000 
 0.060000 0.080000 0.000000 
 0.080000 0.080000 0.000000 
 0.100000 0.080000 0.000000 
 0.120000 0.080000 0.000000 
 0.140000 0.080000 0.000000 
 0.160000 0.080000 0.000000 
 0.180000 0.080000 0.000000 
 0.200000 0.080000 0.000000 
 0.220000 0.080000 0.000000 
 0.240000 0.080000 0.000000 
 0.260000 0.080000 0.000000 
 0.280000 0.080000 0.000000 
 0.300000 0.080000 0.000000 
 0.320000 0.080000 0.000000 
 0.340000 0.080000 0.000000 
 0.360000 0.080000 0.000000 
 0.380000 0.080000 0.000000 
 0.400000 0.080000 0.000000 
 0.420000 0.080000 0.000000 
 0.440000 0.080000 0.000000 
 0.460000 0.080000 0.000000 
 0.480000 0.080000 0.000000 
 0.500000 0.080000 0.000000 
 0.520000 0.080000 0.000000 
 0.540000 0.080000 0.000000 
 0.560000 0.080000 0.000000 
 0.580000 0.080000 0.000000 
 0.600000 0.080000 0.000000 
 0.620000 0.080000 0.000000 
 0.640000 0.080000 0.000000 
 0.660000 0.080000 0.000000 
 0.680000 0.080000 0.000000 
 0.700000 0.080000 0.000000 
 0.720000 0.080000 0.000000 
 0.740000 0.080000 0.000000 
 0.760000 0.080000 0.000000 
 0.780000 0.080000 0.000000 
 0.800000 0.080000 0.000000 
 0.820000 0.080000 0.000000 
 0.840000 0.080000 0.000000 
 0.860000 0.080000 0.000000 
 0.880000 0.080000 0.000000 
 0.900000 0.080000 0.000000 
 0.920000 0.080000 0.000000 
 0.940000 0.080000 0.000000 
 0.960000 0.080000 0.000000 
 0.980000 0.080000 0.000000 
 1.000000 0.080000 0.000000 
 0.000000 0.100000 0.000000 
 0.020000 0.100000 0.000000 
 0.040000 0.100000 0.000000 
 0.060000 0.100000 0.000000 
 0.080000 0.100000 0.000000 
 0.100000 0.100000 0.000000 
 0.120000 0.100000 0.000000 
 0.140000 0.100000 0.000000 
 0.160000 0.100000 0.000000 
 0.180000 0.100000 0.000000 
 0.200000 0.100000 0.000000 
 0.220000 0.100000 0.000000 
 0.240000 0.100000 0.000000 
 0.260000 0.100000 0.000000 
 0.280000 0.100000 0.000000 
 0.300000 0.100000 0.000000 
 0.320000 0.100000 0.000000 
 0.340000 0.100000 0.000000 
 0.360000 0.100000 0.000000 
 0.380000 0.100000 0.000000 
 0.400000 0.100000 0.000000 
 0.420000 0.100000 0.000000 
 0.440000 0.100000 0.000000 
 0.460000 0.100000 0.000000 
 0.480000 0.100000 0.000000 
 0.500000 0.100000 0.000000 
 0.520000 0.100000 0.000000 
 0.540000 0.100000 0.000000 
 0.560000 0.100000 0.000000 
 0.580000 0.100000 0.000000 
 0.600000 0.100000 0.000000 
 0.620000 0.100000 0.000000 
 0.640000 0.100000 0.000000 
 0.660000 0.100000 0.000000 
 0.680000 0.100000 0.000000 
 0.700000 0.100000 0.000000 
 0.720000 0.100000 0.000000 
 0.740000 0.100000 0.000000 
 0.760000 0.100000 0.000000 
 0.780000 0.100000 0.000000 
 0.800000 0.100000 0.000000 
 0.820000 0.100000 0.000000 
 0.840000 0.100000 0.000000 
 0.860000 0.100000 0.000000 
 0.880000 0.100000 0.000000 
 0.900000 0.100000 0.000000 
 0.920000 0.100000 0.000000 
 0.940000 0.100000 0.000000 
 0.960000 0.100000 0.000000 
 0.980000 0.100000 0.000000 
 1.000000 0.100000 0.000000 
 0.000000 0.120000 0.000000 
 0.020000 0.120000 0.000000 
 0.040000 0.120000 0.000000 
 0.060000 0.120000 0.000000 
 0.080000 0.120000 0.000000 
 0.100000 0.120000 0.000000 
 0.120000 0.120000 0.000000 
 0.140000 0.120000 0.000000 
 0.160000 0.120000 0.000000 
 0.180000 0.120000 0.000000 
 0.200000 0.120000 0.000000 
 0.220000 0.120000 0.000000 
 0.240000 0.120000 0.000000 
 0.260000 0.120000 0.000000 
 0.280000 0.120000 0.000000 
 0.300000 0.120000 0.000000 
 0.320000 0.120000 0.000000 
 0.340000 0.120000 0.000000 
 0.360000 0.120000 0.000000 
 0.380000 0.120000 0.000000 
 0.400000 0.120000 0.000000 
 0.420000 0.120000 0.000000 
 0.440000 0.120000 0.000000 
 0.460000 0.120000 0.000000 
 0.480000 0.120000 0.000000 
 0.500000 0.120000 0.000000 
 0.520000 0.120000 0.000000 
 0.540000 0.120000 0.000000 
 0.560000 0.120000 0.000000 
 0.580000 0.120000 0.000000 
 0.600000 0.120000 0.000000 
[...]
<PointData  Scalars="U"> 
<DataArray  type="Float64"  Name="U"  format="ascii"> 
 0.000000e+00
 0.000000e+00
 0.000000e+00
 0.000000e+00
 0.000000e+00
 0.000000e+00
 0.000000e+00
 0.000000e+00
 0.000000e+00
 0.000000e+00
 0.000000e+00
 0.000000e+00
 0.000000e+00
 0.000000e+00
 0.000000e+00
 0.000000e+00
 0.000000e+00
 0.000000e+00
 0.000000e+00
 0.000000e+00
 0.000000e+00
 0.000000e+00
 0.000000e+00
 0.000000e+00
 0.000000e+00
 0.000000e+00
 0.000000e+00
 0.000000e+00
 0.000000e+00
 0.000000e+00
 0.000000e+00
 0.000000e+00
 0.000000e+00
 0.000000e+00
 0.000000e+00
 0.000000e+00
 0.000000e+00
 0.000000e+00
 0.000000e+00
 0.000000e+00
 0.000000e+00
 0.000000e+00
 0.000000e+00
 0.000000e+00
 0.000000e+00
 0.000000e+00
 0.000000e+00
 0.000000e+00
 0.000000e+00
 0.000000e+00
 0.000000e+00
 0.000000e+00
 -3.246726e-09
 -4.771482e-09
 -3.777180e-09
 -6.339824e-10
 3.508309e-09
 7.108879e-09
 8.416777e-09
 5.660598e-09
 -3.023755e-09
 -2.020498e-08
 -4.832851e-08
 -7.731244e-08
 -6.131343e-08
 2.823290e-08
 1.117705e-07
 1.239616e-07
 1.023256e-07
 8.416447e-08
 7.141227e-08
 3.307025e-08
 -1.667842e-07
 -1.557372e-06
 -2.573432e-06
 5.583807e-07
 1.475691e-06
 2.495248e-07
 1.122862e-07
 -9.731483e-08
 -3.887472e-07
 -9.644688e-07
 -2.946415e-06
 -3.544822e-06
 -2.709791e-06
 -9.023679e-07
 -5.109634e-07
 -3.499164e-07
 -2.838005e-07
 -2.867727e-07
 -3.670404e-07
 -3.749125e-07
 -7.248545e-08
 1.920520e-07
 1.583278e-07
 8.254159e-08
 4.537678e-08
 2.875943e-08
 1.974819e-08
 1.282068e-08
 5.917496e-09
 0.000000e+00
 0.000000e+00
 -8.392700e-09
 -1.227779e-08
 -9.830165e-09
 -2.323304e-09
 7.519217e-09
 1.651303e-08
 2.090589e-08
 1.712104e-08
 2.249799e-09
 -2.841780e-08
 -8.726920e-08
 -1.990058e-07
 -2.243885e-07
 6.660935e-08
 3.207805e-07
 2.769016e-07
 1.944602e-07
 1.592654e-07
 1.568162e-07
 1.727765e-07
 1.949705e-07
 1.421988e-07
 1.738299e-05
 3.451985e-05
 -1.570470e-06
 -2.890946e-07
 5.321005e-07
 -2.024227e-07
 -5.628624e-07
 -1.073936e-06
 -2.756785e-06
 1.537661e-05
 -1.187934e-06
 -1.198592e-06
 -8.487080e-07
 -6.167074e-07
 -5.037359e-07
 -4.976017e-07
 -6.379476e-07
 -1.644676e-06
 -1.901628e-07
 8.537264e-07
 2.729275e-07
 1.227448e-07
 7.210683e-08
 5.115943e-08
 3.794422e-08
 2.570710e-08
 1.297821e-08
 0.000000e+00
 0.000000e+00
 -1.856889e-08
 -2.670891e-08
 -2.114992e-08
 -6.376180e-09
 1.223715e-08
 3.054486e-08
 4.178307e-08
 3.946779e-08
 2.210845e-08
 -1.107917e-08
 -7.389802e-08
 -2.381867e-07
 -1.287950e-06
 5.946970e-08
 9.999679e-07
 3.829485e-07
 2.353644e-07
 2.027019e-07
 2.236339e-07
 3.080348e-07
 5.557009e-07
 1.466776e-06
 1.745711e-06
 -1.478671e-06
 -3.153253e-06
 1.654859e-05
 -5.889452e-07
 -5.194207e-07
 -5.930587e-07
 -6.433848e-07
 -3.405004e-07
 1.595395e-05
 -2.828782e-06
 -1.489871e-06
 -1.040108e-06
 -7.665202e-07
 -6.237528e-07
 -5.840591e-07
 -6.273801e-07
 -6.330841e-07
 1.718449e-05
 6.179797e-08
 1.244043e-07
 8.534539e-08
 7.510185e-08
 6.795882e-08
 5.588444e-08
 3.934885e-08
 2.022406e-08
 0.000000e+00
 0.000000e+00
 -4.056213e-08
 -5.644500e-08
 -4.162688e-08
 -1.378367e-08
 1.649316e-08
 5.161280e-08
 7.739461e-08
 7.716186e-08
 5.610789e-08
 2.931865e-08
 1.088308e-08
 2.275235e-08
 2.278040e-08
 1.753861e-05
 1.345953e-07
 1.927249e-07
 1.892990e-07
 2.007576e-07
 2.373784e-07
 3.201522e-07
 4.824771e-07
 6.698568e-07
 4.878820e-07
 -1.869119e-07
 -7.540670e-08
 -8.050720e-07
 -1.902230e-06
 -7.851531e-07
 -6.104373e-07
 -4.552396e-07
 7.999536e-08
 -1.192532e-06
 -2.782152e-06
 -1.537090e-06
 -1.060332e-06
 -7.880561e-07
 -6.431296e-07
 -5.829112e-07
 -5.697847e-07
 -9.562445e-07
 -4.218804e-07
 -6.630160e-07
 -9.001191e-08
 2.106162e-08
 7.863509e-08
 9.088661e-08
 7.836105e-08
 5.548392e-08
 2.849547e-08
 0.000000e+00
 0.000000e+00
 -9.048334e-08
 -1.225449e-07
 -7.292664e-08
 -1.968674e-08
 1.095257e-08
 8.130587e-08
 1.443292e-07
 1.370259e-07
 9.503157e-08
 6.226109e-08
 7.043939e-08
 2.102169e-07
 8.903474e-07
 1.023918e-07
 -1.107063e-06
 -1.653838e-08
 1.316779e-07
 1.747679e-07
 2.078879e-07
 2.523379e-07
 2.949089e-07
 2.599172e-07
 1.260577e-08
 -2.887626e-07
 -2.568002e-07
 -3.478136e-07
 -6.616800e-07
 -6.958983e-07
 -6.140970e-07
 -5.598488e-07
 -6.224344e-07
 -1.041317e-06
 -1.400811e-06
 -1.228948e-06
 -8.935519e-07
 -6.860776e-07
 -5.794707e-07
 -5.291715e-07
 -5.230417e-07
 -5.577367e-07
 1.690432e-05
 -5.201116e-07
 -2.593752e-07
 1.376456e-08
 1.301689e-07
 1.367572e-07
 1.097282e-07
 7.522350e-08
 3.812627e-08
 0.000000e+00
 0.000000e+00
 -2.005692e-07
 -2.985170e-07
 -9.465144e-08
 2.425252e-08
 -6.792871e-08
 1.162354e-07
 3.076384e-07
 2.281152e-07
 1.208260e-07
 6.115214e-08
 3.363795e-08
 2.756856e-08
 9.260530e-08
 1.727047e-07
 1.527820e-07
 1.284362e-07
 1.427868e-07
 1.503775e-07
 1.630897e-07
 1.761739e-07
 1.673218e-07
 8.377925e-08
 -1.839394e-07
 -1.414998e-06
 -2.860382e-07
 4.297277e-07
 -3.506322e-07
 -5.534719e-07
 -5.970585e-07
 -6.351043e-07
 -7.619741e-07
 -1.033236e-06
 -1.199479e-06
 -9.124523e-07
 -5.613776e-07
 -4.864967e-07
 -4.664117e-07
 -4.327881e-07
 -4.312574e-07
 -9.704221e-07
 -8.835859e-07
 -1.457356e-06
 -4.383711e-07
 2.173932e-07
 2.880451e-07
 2.052284e-07
 1.460550e-07
 9.737700e-08
 4.869715e-08
 0.000000e+00
 0.000000e+00
 -2.428283e-07
 -1.361525e-06
 -1.136078e-07
 6.205897e-07
 -1.092659e-06
 5.742404e-08
 9.149930e-07
 2.623219e-07
 9.670052e-08
 3.091339e-08
 -2.968249e-08
 -1.485427e-07
 -1.131403e-06
 1.845031e-07
 1.006418e-06
 3.166332e-07
 1.550366e-07
 1.187617e-07
 1.153230e-07
 1.168783e-07
 1.068465e-07
 7.046838e-08
 6.151825e-09
 -1.372350e-07
 1.718866e-05
 -3.999682e-07
 -4.711482e-07
 -5.426742e-07
 -5.774597e-07
 -6.222167e-07
 -7.237015e-07
 -9.581945e-07
 -2.073921e-06
 -7.461087e-07
 2.295591e-07
 -3.146496e-07
 -3.724037e-07
 -3.136988e-07
 -2.186877e-07
 -3.114484e-07
 1.649842e-05
 -3.515575e-06
 -8.599148e-07
 1.358179e-06
 4.505153e-07
 2.389777e-07
 1.748158e-07
 1.215441e-07
 5.879056e-08
 0.000000e+00
 0.000000e+00
 1.162759e-08
 -2.285039e-08
 1.743098e-05
 -2.329688e-08
 -3.536510e-08
 1.739742e-05
 -6.647928e-08
 -1.886248e-08
 6.685564e-10
 4.686150e-09
 -6.829005e-08
 -7.793105e-08
 1.503194e-07
 1.780072e-05
 2.339265e-07
 1.417878e-07
 7.645395e-08
 6.158723e-08
 6.360519e-08
 6.898258e-08
 7.424538e-08
 9.233964e-08
 1.952708e-07
 7.503224e-07
 -2.571957e-07
 -1.670154e-06
 -6.804960e-07
 -5.673168e-07
 -5.477109e-07
 -5.546600e-07
 -5.738899e-07
 -5.859278e-07
 -6.280686e-07
 1.684727e-05
 -5.617523e-07
 -4.549235e-07
 -3.663918e-07
 -2.292578e-07
 2.633204e-09
 6.404656e-07
 -3.825096e-07
 -2.038573e-06
 3.282269e-05
 -6.607859e-07
 4.023862e-07
 9.811842e-08
 2.283565e-07
 1.558595e-07
 6.040239e-08
 0.000000e+00
 0.000000e+00
 2.291148e-07
 9.069983e-07
 5.130778e-08
 -1.112607e-06
 5.746192e-07
 -1.970329e-07
 -1.482785e-06
 -3.620173e-07
 -7.746700e-08
 6.192431e-08
 3.307179e-09
 -9.116153e-07
 1.011672e-06
 9.698082e-07
 -1.026498e-06
 -1.487980e-07
 -4.539639e-08
 -9.578808e-09
 9.813519e-09
 2.321725e-08
 3.588395e-08
 5.813276e-08
 1.054411e-07
 9.703068e-08
 -2.186189e-07
 -5.712352e-07
 -5.997255e-07
 -5.293310e-07
 -4.971539e-07
 -4.736339e-07
 -4.250783e-07
 -2.662830e-07
 3.765559e-07
 -5.133757e-07
 -1.789508e-06
 -6.571839e-07
 -3.995402e-07
 -2.178021e-07
 -1.348650e-08
 1.794793e-07
 2.571195e-07
 1.234308e-06
 -6.360635e-07
 1.415823e-05
 -2.136200e-06
 -3.809217e-07
 6.847095e-07
 1.335164e-07
 2.359672e-08
 0.000000e+00
 0.000000e+00
 1.649512e-07
 2.708382e-07
 8.542959e-08
 -1.084177e-07
 -4.337811e-08
 -2.197860e-07
 -5.399648e-07
 -4.858307e-07
 -4.145437e-08
 3.141821e-07
 3.687284e-07
 3.555502e-07
 1.781321e-05
 6.820552e-08
 -2.176948e-07
 -2.229658e-07
 -1.230259e-07
 -6.854215e-08
 -3.845830e-08
 -2.089863e-08
 -1.017296e-08
 -4.434370e-09
 -1.360944e-08
 -7.670479e-08
 -2.256115e-07
 -3.811287e-07
 -4.495576e-07
 -4.534319e-07
 -4.383427e-07
 -4.115958e-07
 -3.587828e-07
 -2.590250e-07
 -1.910176e-07
 -4.095563e-07
 -6.524031e-07
 -5.674212e-07
 -3.842263e-07
 -2.367858e-07
 -9.177477e-08
 6.570538e-08
 2.620212e-07
 4.682631e-07
 6.143034e-07
 -8.083027e-07
 -2.042680e-06
 1.676557e-05
 -3.552987e-07
 -1.613050e-07
 -7.457384e-08
 0.000000e+00
 0.000000e+00
 7.350413e-08
 9.819706e-08
 4.053300e-08
 -3.437493e-08
 -8.175657e-08
 -1.821827e-07
 -3.888964e-07
 -1.415537e-06
 1.761118e-09
 1.042627e-06
 6.287381e-07
 1.141189e-06
 1.545694e-07
 -1.295158e-06
 -3.562972e-07
 -2.295274e-07
 -1.549396e-07
 -1.052372e-07
 -7.511984e-08
 -5.857883e-08
 -5.257882e-08
 -5.811897e-08
 -8.235919e-08
 -1.370044e-07
 -2.217803e-07
 -3.080905e-07
 -3.644709e-07
 -3.874666e-07
 -3.884974e-07
 -3.737053e-07
 -3.433285e-07
 -3.059229e-07
 -3.006227e-07
 -3.641790e-07
 -4.269830e-07
 -4.061167e-07
 -3.326737e-07
 -2.577401e-07
 -1.838432e-07
 -6.579197e-08
 1.185828e-07
 2.537456e-07
 1.681107e-07
 -1.282460e-07
 1.983323e-07
 -5.802821e-07
 -1.665319e-06
 -4.395887e-07
 -1.586428e-07
 0.000000e+00
 0.000000e+00
 2.818403e-08
 3.391525e-08
 1.021397e-08
 -2.353854e-08
 -4.704507e-08
 -5.546592e-08
 -2.964648e-08
 -1.418904e-08
 1.751561e-05
 1.493904e-07
 3.000346e-07
 3.453236e-07
 7.174439e-08
 -2.683007e-07
 -2.964630e-07
 -2.141773e-07
 -1.598448e-07
 -1.225667e-07
 -9.874143e-08
 -8.632650e-08
 -8.450871e-08
 -9.439897e-08
 -1.190029e-07
 -1.607031e-07
 -2.156738e-07
 -2.715489e-07
 -3.152510e-07
 -3.418453e-07
 -3.531990e-07
 -3.522197e-07
 -3.412164e-07
 -3.252191e-07
 -3.146610e-07
 -3.155316e-07
 -3.147230e-07
 -2.974647e-07
 -2.728098e-07
 -2.682308e-07
 -3.198578e-07
 -2.968934e-07
 1.956563e-08
 2.564197e-07
 1.335163e-07
 -4.744248e-08
 -1.461835e-07
 -3.536140e-07
 -5.080372e-07
 -3.575304e-07
 -1.493428e-07
 0.000000e+00
 0.000000e+00
 7.679063e-09
 5.089857e-09
 -1.015098e-08
 -2.766747e-08
 -2.390213e-08
 4.197626e-08
 2.528288e-07
 9.523709e-07
 9.264971e-08
 -1.185613e-06
 -9.266317e-08
 4.600012e-08
 -2.004457e-08
 -1.366670e-07
 -1.847342e-07
 -1.738703e-07
 -1.487524e-07
 -1.265174e-07
 -1.111581e-07
 -1.038106e-07
 -1.051148e-07
 -1.159894e-07
 -1.374467e-07
 -1.693130e-07
 -2.084992e-07
 -2.489427e-07
 -2.843963e-07
 -3.114741e-07
 -3.299784e-07
 -3.411712e-07
 -3.454226e-07
 -3.387691e-07
 -3.127299e-07
 -2.679360e-07
 -2.243005e-07
 -1.991095e-07
 -1.943020e-07
 -2.225446e-07
 -3.619870e-07
 -1.407262e-06
 -8.390383e-08
 8.004666e-07
 9.642786e-08
 -1.497036e-07
 -2.492534e-07
 -2.575284e-07
 -2.212479e-07
 -1.591683e-07
 -8.085156e-08
 0.000000e+00
 0.000000e+00
 -1.169349e-09
 -8.752166e-09
 -2.619617e-08
 -5.040489e-08
 -5.833597e-08
 1.565569e-08
 2.180871e-07
 3.794233e-07
 1.671781e-07
 -1.265008e-07
 -1.199242e-07
 -5.013361e-08
 -6.178130e-08
 -1.049654e-07
 -1.346600e-07
 -1.405997e-07
 -1.333835e-07
 -1.232401e-07
 -1.155094e-07
 -1.127137e-07
 -1.162002e-07
 -1.268217e-07
 -1.449467e-07
 -1.700034e-07
 -2.000264e-07
 -2.319042e-07
 -2.625091e-07
 -2.899189e-07
 -3.139684e-07
 -3.363327e-07
 -3.592273e-07
 -3.731436e-07
 -3.342171e-07
 -2.183699e-07
 -1.113920e-07
 -8.200108e-08
 -9.099145e-08
 -9.652140e-08
 -8.306890e-08
 -1.138285e-07
 1.733124e-05
 -1.664856e-07
 -2.181572e-07
 -3.784228e-07
 -4.484842e-07
 -1.979894e-07
 4.055477e-08
 2.089167e-08
 -1.158702e-08
 0.000000e+00
 0.000000e+00
 -3.095497e-09
 -1.180244e-08
 -3.316350e-08
 -7.965716e-08
 -1.734542e-07
 -1.729489e-07
 1.425275e-07
 3.786028e-07
 2.355045e-07
 4.056153e-08
 -4.098412e-08
 -5.830526e-08
 -7.293787e-08
 -9.432785e-08
 -1.118474e-07
 -1.197484e-07
 -1.200110e-07
 -1.171211e-07
 -1.147551e-07
 -1.152702e-07
 -1.200843e-07
 -1.299958e-07
 -1.452607e-07
 -1.655057e-07
 -1.896938e-07
 -2.163651e-07
 -2.441217e-07
 -2.720360e-07
 -2.999313e-07
 -3.300418e-07
 -3.736872e-07
 -4.602188e-07
 -4.613031e-07
 -1.552330e-07
 1.060484e-07
 6.893066e-08
 2.781529e-09
 1.306615e-08
 1.572348e-07
 7.824377e-07
 -1.479719e-07
 -1.502066e-06
 -5.068669e-07
 -5.237841e-07
 -1.548247e-06
 -2.096855e-07
 7.262005e-07
 1.260580e-07
 1.030234e-08
 0.000000e+00
 0.000000e+00
 4.288654e-10
 -2.986071e-09
 -1.712319e-08
 -6.201113e-08
 -2.153531e-07
 -1.267143e-06
 5.961062e-08
 9.558742e-07
 2.738615e-07
 6.047833e-08
 -2.387674e-08
 -5.734775e-08
 -7.490961e-08
 -8.901450e-08
 -1.001451e-07
 -1.068438e-07
 -1.095708e-07
 -1.102415e-07
 -1.109679e-07
 -1.134323e-07
 -1.187857e-07
 -1.277101e-07
 -1.404754e-07
 -1.569854e-07
 -1.768913e-07
 -1.998293e-07
 -2.256783e-07
 -2.544276e-07
 -2.849650e-07
 -3.139025e-07
 -3.472606e-07
 -4.633719e-07
 -1.477647e-06
 -1.285789e-07
 7.940772e-07
 1.643858e-07
 2.206089e-08
 1.750219e-08
 8.933398e-08
 1.304676e-07
 -1.256928e-07
 -4.199362e-07
 -3.970065e-07
 -2.751039e-07
 -2.441411e-07
 1.725763e-05
 -1.586904e-07
 -8.280353e-08
 -4.748132e-08
 0.000000e+00
 0.000000e+00
 7.431826e-09
 1.497871e-08
 2.317795e-08
 3.394814e-08
 5.595840e-08
 3.152684e-08
 1.748744e-05
 1.355527e-08
 1.615534e-08
 -2.753925e-08
 -5.313725e-08
 -6.828864e-08
 -7.837483e-08
 -8.657064e-08
 -9.331725e-08
 -9.816241e-08
 -1.011945e-07
 -1.032200e-07
 -1.053507e-07
 -1.086282e-07
 -1.138480e-07
 -1.215204e-07
 -1.318990e-07
 -1.450650e-07
 -1.611060e-07
 -1.804324e-07
 -2.041967e-07
 -2.344313e-07
 -2.718611e-07
 -3.023009e-07
 -2.742965e-07
 -1.516184e-07
 -7.783813e-08
 1.740516e-05
 -7.058710e-08
 -5.572247e-08
 -6.791079e-08
 -5.209158e-08
 -3.153955e-08
 -5.139270e-08
 -1.471162e-07
 -2.379419e-07
 -2.126050e-07
 -1.829014e-08
 6.651951e-07
 -1.956329e-07
 -1.457924e-06
 -3.336288e-07
 -1.130127e-07
 0.000000e+00
 0.000000e+00
 1.438376e-08
 3.245726e-08
 6.156093e-08
 1.226406e-07
 2.908148e-07
 9.286009e-07
 9.357780e-09
 -1.324671e-06
 -2.775979e-07
 -1.310266e-07
 -9.305132e-08
 -8.382519e-08
 -8.319505e-08
 -8.545342e-08
 -8.852304e-08
 -9.142864e-08
 -9.387225e-08
 -9.607497e-08
 -9.854195e-08
 -1.018328e-07
 -1.064135e-07
 -1.125934e-07
 -1.205323e-07
 -1.303191e-07
 -1.421618e-07
 -1.567844e-07
 -1.762502e-07
 -2.057231e-07
 -2.568982e-07
 -3.487864e-07
 -3.215079e-07
 1.308815e-07
 1.019215e-06
 5.719445e-08
 -1.353171e-06
 -3.327902e-07
 -1.831406e-07
 -1.317389e-07
 -1.153379e-07
 -1.290690e-07
 -1.671287e-07
 -1.951609e-07
 -1.697377e-07
 -6.999422e-08
 1.511460e-08
 -1.701665e-07
 -3.705484e-07
 -2.624818e-07
 -9.763207e-08
 0.000000e+00
 0.000000e+00
 1.813162e-08
 4.061359e-08
 7.425588e-08
 1.315512e-07
 2.279203e-07
 2.787885e-07
 2.541176e-08
 -2.705208e-07
 -2.549426e-07
 -1.561806e-07
 -1.111301e-07
 -9.254157e-08
 -8.555526e-08
 -8.366541e-08
 -8.400451e-08
 -8.524702e-08
 -8.683772e-08
 -8.867214e-08
 -9.089119e-08
 -9.371979e-08
 -9.735302e-08
 -1.018928e-07
 -1.073324e-07
 -1.135926e-07
 -1.206374e-07
 -1.287589e-07
 -1.393354e-07
 -1.572233e-07
 -1.998574e-07
 -3.390972e-07
 -1.350496e-06
 6.698325e-08
 1.034638e-06
 1.509417e-07
 -2.975792e-07
 -3.220949e-07
 -2.298753e-07
 -1.836419e-07
 -1.686036e-07
 -1.758281e-07
 -1.953718e-07
 -2.105402e-07
 -2.067301e-07
 -1.900207e-07
 -1.940084e-07
 -2.178682e-07
 -1.741859e-07
 -7.147110e-08
 -1.139091e-08
 0.000000e+00
 0.000000e+00
 1.790540e-08
 3.856413e-08
 6.478622e-08
 9.740781e-08
 1.249630e-07
 1.052875e-07
 1.751683e-09
 -1.118241e-07
 -1.464897e-07
 -1.281738e-07
 -1.053822e-07
 -9.095314e-08
 -8.334831e-08
 -7.987201e-08
 -7.870097e-08
 -7.879030e-08
 -7.959939e-08
 -8.089730e-08
 -8.262445e-08
 -8.478532e-08
 -8.736651e-08
 -9.027832e-08
 -9.331497e-08
 -9.612574e-08
 -9.818402e-08
 -9.873016e-08
 -9.663252e-08
 -9.001036e-08
 -7.497978e-08
 -3.983373e-08
 -3.932968e-08
 1.744629e-05
 -3.061775e-08
 -1.010299e-07
 -2.228175e-07
 -2.530562e-07
 -2.295646e-07
 -2.061532e-07
 -1.993111e-07
 -2.086348e-07
 -2.280666e-07
 -2.483177e-07
 -2.635486e-07
 -2.857406e-07
 -3.563498e-07
 -3.577703e-07
 -6.105590e-08
 1.904746e-07
 1.301504e-07
 0.000000e+00
 0.000000e+00
 1.497545e-08
 3.080966e-08
 4.746020e-08
 6.199799e-08
 6.532633e-08
 4.315385e-08
 -7.535732e-09
 -6.174559e-08
 -9.139861e-08
 -9.598999e-08
 -8.983434e-08
 -8.256564e-08
 -7.719230e-08
 -7.390279e-08
 -7.221822e-08
 -7.166404e-08
 -7.190001e-08
 -7.270320e-08
 -7.392035e-08
 -7.541725e-08
 -7.702972e-08
 -7.851485e-08
 -7.949479e-08
 -7.937443e-08
 -7.718603e-08
 -7.123707e-08
 -5.819416e-08
 -3.035086e-08
 3.392544e-08
 2.101799e-07
 8.593272e-07
 -5.246160e-08
 -1.396034e-06
 -3.799283e-07
 -2.652683e-07
 -2.375350e-07
 -2.203522e-07
 -2.102737e-07
 -2.130676e-07
 -2.306409e-07
 -2.602664e-07
 -2.939596e-07
 -3.195265e-07
 -3.351909e-07
 -4.141081e-07
 -1.377406e-06
 1.094922e-08
 9.344239e-07
 2.559303e-07
 0.000000e+00
 0.000000e+00
 1.106675e-08
 2.181754e-08
 3.116557e-08
 3.637669e-08
 3.276091e-08
 1.595166e-08
 -1.251768e-08
 -4.269874e-08
 -6.382733e-08
 -7.306528e-08
 -7.421269e-08
 -7.189267e-08
 -6.887993e-08
 -6.634152e-08
 -6.463041e-08
 -6.376768e-08
 -6.364506e-08
 -6.409822e-08
 -6.493150e-08
 -6.592065e-08
 -6.679842e-08
 -6.722207e-08
 -6.671740e-08
 -6.458307e-08
 -5.971377e-08
 -5.024445e-08
 -3.279192e-08
 -8.488104e-10
 5.789867e-08
 1.582100e-07
 2.134931e-07
 -3.897893e-08
 -3.418492e-07
 -3.408574e-07
 -2.571914e-07
 -2.205344e-07
 -2.042825e-07
 -2.006761e-07
 -2.113201e-07
 -2.397042e-07
 -2.874289e-07
 -3.482868e-07
 -3.945587e-07
 -3.591539e-07
 -1.752438e-07
 3.059913e-08
 1.763251e-05
 1.751092e-07
 1.236813e-07
 0.000000e+00
 0.000000e+00
 7.351697e-09
 1.394650e-08
 1.860961e-08
 1.950116e-08
 1.443523e-08
 2.205495e-09
 -1.560290e-08
 -3.442451e-08
 -4.937712e-08
 -5.822750e-08
 -6.166547e-08
 -6.163964e-08
 -5.996975e-08
 -5.790545e-08
 -5.617583e-08
 -5.512298e-08
 -5.480966e-08
 -5.510880e-08
 -5.578009e-08
 -5.652346e-08
 -5.700031e-08
 -5.682176e-08
 -5.550681e-08
 -5.241010e-08
 -4.661093e-08
 -3.675595e-08
 -2.090298e-08
 3.267076e-09
 3.610361e-08
 6.531642e-08
 4.729100e-08
 -5.656968e-08
 -1.739472e-07
 -2.154213e-07
 -2.043388e-07
 -1.869471e-07
 -1.769047e-07
 -1.770249e-07
 -1.915927e-07
 -2.283000e-07
 -2.983975e-07
 -4.090574e-07
 -5.475281e-07
 -5.549842e-07
 -6.200456e-08
 1.148041e-06
 4.988582e-07
 -9.168336e-07
 -2.536376e-08
 0.000000e+00
 0.000000e+00
 4.320438e-09
 7.881659e-09
 9.735257e-09
 8.722266e-09
 3.786234e-09
 -5.361237e-09
 -1.761056e-08
 -3.056066e-08
 -4.157683e-08
 -4.899316e-08
 -5.252895e-08
 -5.292327e-08
 -5.136654e-08
 -4.907134e-08
 -4.699836e-08
 -4.570735e-08
 -4.534358e-08
 -4.573823e-08
 -4.655112e-08
 -4.738521e-08
 -4.784309e-08
 -4.753148e-08
 -4.603353e-08
 -4.286846e-08
 -3.746028e-08
 -2.916215e-08
 -1.747105e-08
 -2.796742e-09
 1.148548e-08
 1.563724e-08
 -5.516232e-09
 -5.594280e-08
 -1.112097e-07
 -1.429645e-07
 -1.497438e-07
 -1.452052e-07
 -1.397917e-07
 -1.394936e-07
 -1.504358e-07
 -1.836568e-07
 -2.634094e-07
 -4.435200e-07
 -6.848210e-07
 -1.625916e-06
 -1.133317e-06
 1.076397e-06
 1.294797e-06
 3.943195e-07
 1.073096e-07
 0.000000e+00
 0.000000e+00
 2.012327e-09
 3.479524e-09
 3.732662e-09
 1.993188e-09
 -2.395517e-09
 -9.578122e-09
 -1.887374e-08
 -2.881999e-08
 -3.763193e-08
 -4.381303e-08
 -4.660345e-08
 -4.615738e-08
 -4.345665e-08
 -3.994422e-08
 -3.696634e-08
 -3.531101e-08
 -3.509152e-08
 -3.594172e-08
 -3.730239e-08
 -3.862475e-08
 -3.945176e-08
 -3.941672e-08
 -3.821029e-08
 -3.555381e-08
 -3.121025e-08
 -2.507855e-08
 -1.745551e-08
 -9.584073e-09
 -4.469720e-09
 -7.187303e-09
 -2.257351e-08
 -4.953177e-08
 -7.831678e-08
 -9.798666e-08
 -1.052424e-07
 -1.035172e-07
 -9.761928e-08
 -9.145243e-08
 -8.893647e-08
 -9.722081e-08
 -1.367461e-07
 -2.843283e-07
 -1.321265e-06
 -2.846830e-08
 1.818551e-05
 1.647313e-05
 1.083245e-07
 8.800033e-07
 1.768000e-07
 0.000000e+00
 0.000000e+00
 2.246370e-10
 2.664819e-10
 -2.623652e-10
 -1.999589e-09
 -5.634655e-09
 -1.153836e-08
 -1.942805e-08
 -2.826758e-08
 -3.644876e-08
 -4.218283e-08
 -4.406064e-08
 -4.172964e-08
 -3.633952e-08
 -3.017823e-08
 -2.548966e-08
 -2.339681e-08
 -2.374061e-08
 -2.564026e-08
 -2.810957e-08
 -3.037547e-08
 -3.193184e-08
 -3.247749e-08
 -3.184193e-08
 -2.994451e-08
 -2.680645e-08
 -2.263348e-08
 -1.798770e-08
 -1.403229e-08
 -1.269117e-08
 -1.629434e-08
 -2.622280e-08
 -4.103789e-08
 -5.620268e-08
 -6.666701e-08