<VTKFile type="UnstructuredGrid"  version="0.1"   >
<UnstructuredGrid>  
<Piece  NumberOfPoints="     2601"  NumberOfCells="     5000">  
<Points>  
<DataArray  type="Float64"  NumberOfComponents="3"  format="ascii">  
 0.000000 0.000000 0.000000 
 0.020000 0.000000 0.000000 
 0.040000 0.000000 0.000000 
 0.060000 0.000000 0.000000 
 0.080000 0.000000 0.000000 
 0.100000 0.000000 0.000000 
 0.120000 0.000000 0.000000 
 0.140000 0.000000 0.000000 
 0.160000 0.000000 0.000000 
 0.180000 0.000000 0.000000 
 0.200000 0.000000 0.000000 
 0.220000 0.000000 0.000000 
 0.240000 0.000000 0.000000 
 0.260000 0.000000 0.000000 
 0.280000 0.000000 0.000000 
 0.300000 0.000000 0.000000 
 0.320000 0.000000 0.000000 
 0.340000 0.000000 0.000000 
 0.360000 0.000000 0.000000 
 0.380000 0.000000 0.000000 
 0.400000 0.000000 0.000000 
 0.420000 0.000000 0.000000 
 0.440000 0.000000 0.000000 
 0.460000 0.000000 0.000000 
 0.480000 0.000000 0.000000 
 0.500000 0.000000 0.000000 
 0.520000 0.000000 0.000000 
 0.540000 0.000000 0.000000 
 0.560000 0.000000 0.000000 
 0.580000 0.000000 0.000000 
 0.600000 0.000000 0.000000 
 0.620000 0.000000 0.000000 
 0.640000 0.000000 0.000000 
 0.660000 0.000000 0.000000 
 0.680000 0.000000 0.000000 
 0.700000 0.000000 0.000000 
 0.720000 0.000000 0.000000 
 0.740000 0.000000 0.000000 
 0.760000 0.000000 0.000000 
 0.780000 0.000000 0.000000 
 0.800000 0.000000 0.000000 
 0.820000 0.000000 0.000000 
 0.840000 0.000000 0.000000 
 0.860000 0.000000 0.000000 
 0.880000 0.000000 0.000000 
 0.900000 0.000000 0.000000 
 0.920000 0.000000 0.000000 
 0.940000 0.000000 0.000000 
 0.960000 0.000000 0.000000 
 0.980000 0.000000 0.000000 
 1.000000 0.000000 0.000000 
 0.000000 0.020000 0.000000 
 0.020000 0.020000 0.000000 
 0.040000 0.020000 0.000000 
 0.060000 0.020000 0.000000 
 0.080000 0.020000 0.000000 
 0.100000 0.020000 0.000000 
 0.120000 0.020000 0.000000 
 0.140000 0.020000 0.000000 
 0.160000 0.020000 0.000000 
 0.180000 0.020000 0.000000 
 0.200000 0.020000 0.000000 
 0.220000 0.020000 0.000000 
 0.240000 0.020000 0.000000 
 0.260000 0.020000 0.000000 
 0.280000 0.020000 0.000000 
 0.300000 0.020000 0.000000 
 0.320000 0.020000 0.000000 
 0.340000 0.020000 0.000000 
 0.360000 0.020000 0.000000 
 0.380000 0.020000 0.000000 
 0.400000 0.020000 0.000000 
 0.420000 0.020000 0.000000 
 0.440000 0.020000 0.000000 
 0.460000 0.020000 0.000000 
 0.480000 0.020000 0.000000 
 0.500000 0.020000 0.000000 
 0.520000 0.020000 0.000000 
 0.540000 0.020000 0.000000 
 0.560000 0.020000 0.000000 
 0.580000 0.020000 0.000000 
 0.600000 0.020000 0.000000 
 0.620000 0.020000 0.000000 
 0.640000 0.020000 0.000000 
 0.660000 0.020000 0.000000 
 0.680000 0.020000 0.000000 
 0.700000 0.020000 0.000000 
 0.720000 0.020000 0.000000 
 0.740000 0.020000 0.000000 
 0.760000 0.020000 0.000000 
 0.780000 0.020000 0.000000 
 0.800000 0.020000 0.000000 
 0.820000 0.020000 0.000000 
 0.840000 0.020000 0.000000 
 0.860000 0.020000 0.000000 
 0.880000 0.020000 0.000000 
 0.900000 0.020000 0.000000 
 0.920000 0.020000 0.000000 
 0.940000 0.020000 0.000000 
 0.960000 0.020000 0.000000 
 0.980000 0.020000 0.000000 
 1.000000 0.020000 0.000000 
 0.000000 0.040000 0.000000 
 0.020000 0.040000 0.000000 
 0.040000 0.040000 0.000000 
 0.060000 0.040000 0.000000 
 0.080000 0.040000 0.000000 
 0.100000 0.040000 0.000000 
 0.120000 0.040000 0.000000 
 0.140000 0.040000 0.000000 
 0.160000 0.040000 0.000000 
 0.180000 0.040000 0.000000 
 0.200000 0.040000 0.000000 
 0.220000 0.040000 0.000000 
 0.240000 0.040000 0.000000 
 0.260000 0.040000 0.000000 
 0.280000 0.040000 0.000000 
 0.300000 0.040000 0.000000 
 0.320000 0.040000 0.000000 
 0.340000 0.040000 0.000000 
 0.360000 0.040000 0.000000 
 0.380000 0.040000 0.000000 
 0.400000 0.040000 0.000000 
 0.420000 0.040000 0.000000 
 0.440000 0.040000 0.000000 
 0.460000 0.040000 0.000000 
 0.480000 0.040000 0.000000 
 0.500000 0.040000 0.000000 
 0.520000 0.040000 0.000000 
 0.540000 0.040000 0.000000 
 0.560000 0.040000 0.000000 
 0.580000 0.040000 0.000000 
 0.600000 0.040000 0.000000 
 0.620000 0.040000 0.000000 
 0.640000 0.040000 0.000000 
 0.660000 0.040000 0.000000 
 0.680000 0.040000 0.000000 
 0.700000 0.040000 0.000000 
 0.720000 0.040000 0.000000 
 0.740000 0.040000 0.000000 
 0.760000 0.040000 0.000000 
 0.780000 0.040000 0.000000 
 0.800000 0.040000 0.000000 
 0.820000 0.040000 0.000000 
 0.840000 0.040000 0.000000 
 0.860000 0.040000 0.000000 
 0.880000 0.040000 0.000000 
 0.900000 0.040000 0.000000 
 0.920000 0.040000 0.000000 
 0.940000 0.040000 0.000000 
 0.960000 0.040000 0.000000 
 0.980000 0.040000 0.000000 
 1.000000 0.040000 0.000000 
 0.000000 0.060000 0.000000 
 0.020000 0.060000 0.000000 
 0.040000 0.060000 0.000000 
 0.060000 0.060000 0.000000 
 0.080000 0.060000 0.000000 
 0.100000 0.060000 0.000000 
 0.120000 0.060000 0.000000 
 0.140000 0.060000 0.000000 
 0.160000 0.060000 0.000000 
 0.180000 0.060000 0.000000 
 0.200000 0.060000 0.000000 
 0.220000 0.060000 0.000000 
 0.240000 0.060000 0.000000 
 0.260000 0.060000 0.000000 
 0.280000 0.060000 0.000000 
 0.300000 0.060000 0.000000 
 0.320000 0.060000 0.000000 
 0.340000 0.060000 0.000000 
 0.360000 0.060000 0.000000 
 0.380000 0.060000 0.000000 
 0.400000 0.060000 0.000000 
 0.420000 0.060000 0.000000 
 0.440000 0.060000 0.000000 
 0.460000 0.060000 0.000000 
 0.480000 0.060000 0.000000 
 0.500000 0.060000 0.000000 
 0.520000 0.060000 0.000000 
 0.540000 0.060000 0.000000 
 0.560000 0.060000 0.000000 
 0.580000 0.060000 0.000000 
 0.600000 0.060000 0.000000 
 0.620000 0.060000 0.000000 
 0.640000 0.060000 0.000000 
 0.660000 0.060000 0.000000 
 0.680000 0.060000 0.000000 
 0.700000 0.060000 0.000000 
 0.720000 0.060000 0.000000 
 0.740000 0.060000 0.000000 
 0.760000 0.060000 0.000000 
 0.780000 0.060000 0.000000 
 0.800000 0.060000 0.000000 
 0.820000 0.060000 0.000000 
 0.840000 0.060000 0.000000 
 0.860000 0.060000 0.000000 
 0.880000 0.060000 0.000000 
 0.900000 0.060000 0.000000 
 0.920000 0.060000 0.000000 
 0.940000 0.060000 0.000000 
 0.960000 0.060000 0.000000 
 0.980000 0.060000 0.000000 
 1.000000 0.060000 0.000000 
 0.000000 0.080000 0.000000 
 0.020000 0.080000 0.000000 
 0.040000 0.080000 0.000000 
 0.060000 0.080000 0.000000 
 0.080000 0.080000 0.000000 
 0.100000 0.080000 0.000000 
 0.120000 0.080000 0.000000 
 0.140000 0.080000 0.000000 
 0.160000 0.080000 0.000000 
 0.180000 0.080000 0.000000 
 0.200000 0.080000 0.000000 
 0.220000 0.080000 0.000000 
 0.240000 0.080000 0.000000 
 0.260000 0.080000 0.000000 
 0.280000 0.080000 0.000000 
 0.300000 0.080000 0.000000 
 0.320000 0.080000 0.000000 
 0.340000 0.080000 0.000000 
 0.360000 0.080000 0.000000 
 0.380000 0.080000 0.000000 
 0.400000 0.080000 0.000000 
 0.420000 0.080000 0.000000 
 0.440000 0.080000 0.000000 
 0.460000 0.080000 0.000000 
 0.480000 0.080000 0.000000 
 0.500000 0.080000 0.000000 
 0.520000 0.080000 0.000000 
 0.540000 0.080000 0.000000 
 0.560000 0.080000 0.000000 
 0.580000 0.080000 0.000000 
 0.600000 0.080000 0.000000 
 0.620000 0.080000 0.000000 
 0.640000 0.080000 0.000000 
 0.660000 0.080000 0.000000 
 0.680000 0.080000 0.000000 
 0.700000 0.080000 0.000000 
 0.720000 0.080000 0.000000 
 0.740000 0.080000 0.000000 
 0.760000 0.080000 0.000000 
 0.780000 0.080000 0.000000 
 0.800000 0.080000 0.000000 
 0.820000 0.080000 0.000000 
 0.840000 0.080000 0.000000 
 0.860000 0.080000 0.000000 
 0.880000 0.080000 0.000000 
 0.900000 0.080000 0.000000 
 0.920000 0.080000 0.000000 
 0.940000 0.080000 0.000000 
 0.960000 0.080000 0.000000 
 0.980000 0.080000 0.000000 
 1.000000 0.080000 0.000000 
 0.000000 0.100000 0.000000 
 0.020000 0.100000 0.000000 
 0.040000 0.100000 0.000000 
 0.060000 0.100000 0.000000 
 0.080000 0.100000 0.000000 
 0.100000 0.100000 0.000000 
 0.120000 0.100000 0.000000 
 0.140000 0.100000 0.000000 
 0.160000 0.100000 0.000000 
 0.180000 0.100000 0.000000 
 0.200000 0.100000 0.000000 
 0.220000 0.100000 0.000000 
 0.240000 0.100000 0.000000 
 0.260000 0.100000 0.000000 
 0.280000 0.100000 0.000000 
 0.300000 0.100000 0.000000 
 0.320000 0.100000 0.000000 
 0.340000 0.100000 0.000000 
 0.360000 0.100000 0.000000 
 0.380000 0.100000 0.000000 
 0.400000 0.100000 0.000000 
 0.420000 0.100000 0.000000 
 0.440000 0.100000 0.000000 
 0.460000 0.100000 0.000000 
 0.480000 0.100000 0.000000 
 0.500000 0.100000 0.000000 
 0.520000 0.100000 0.000000 
 0.540000 0.100000 0.000000 
 0.560000 0.100000 0.000000 
 0.580000 0.100000 0.000000 
 0.600000 0.100000 0.000000 
 0.620000 0.100000 0.000000 
 0.640000 0.100000 0.000000 
 0.660000 0.100000 0.000000 
 0.680000 0.100000 0.000000 
 0.700000 0.100000 0.000000 
 0.720000 0.100000 0.000000 
 0.740000 0.100000 0.000000 
 0.760000 0.100000 0.000000 
 0.780000 0.100000 0.000000 
 0.800000 0.100000 0.000000 
 0.820000 0.100000 0.000000 
 0.840000 0.100000 0.000000 
 0.860000 0.100000 0.000000 
 0.880000 0.100000 0.000000 
 0.900000 0.100000 0.000000 
 0.920000 0.100000 0.000000 
 0.940000 0.100000 0.000000 
 0.960000 0.100000 0.000000 
 0.980000 0.100000 0.000000 
 1.000000 0.100000 0.000000 
 0.000000 0.120000 0.000000 
 0.020000 0.120000 0.000000 
 0.040000 0.120000 0.000000 
 0.060000 0.120000 0.000000 
 0.080000 0.120000 0.000000 
 0.100000 0.120000 0.000000 
 0.120000 0.120000 0.000000 
 0.140000 0.120000 0.000000 
 0.160000 0.120000 0.000000 
 0.180000 0.120000 0.000000 
 0.200000 0.120000 0.000000 
 0.220000 0.120000 0.000000 
 0.240000 0.120000 0.000000 
 0.260000 0.120000 0.000000 
 0.280000 0.120000 0.000000 
 0.300000 0.120000 0.000000 
 0.320000 0.120000 0.000000 
 0.340000 0.120000 0.000000 
 0.360000 0.120000 0.000000 
 0.380000 0.120000 0.000000 
 0.400000 0.120000 0.000000 
 0.420000 0.120000 0.000000 
 0.440000 0.120000 0.000000 
 0.460000 0.120000 0.000000 
 0.480000 0.120000 0.000000 
 0.500000 0.120000 0.000000 
 0.520000 0.120000 0.000000 
 0.540000 0.120000 0.000000 
 0.560000 0.120000 0.000000 
 0.580000 0.120000 0.000000 
 0.600000 0.120000 0.000000 
[...]
<PointData  Scalars="U"> 
<DataArray  type="Float64"  Name="U"  format="ascii"> 
 0.000000e+00
 0.000000e+00
 0.000000e+00
 0.000000e+00
 0.000000e+00
 0.000000e+00
 0.000000e+00
 0.000000e+00
 0.000000e+00
 0.000000e+00
 0.000000e+00
 0.000000e+00
 0.000000e+00
 0.000000e+00
 0.000000e+00
 0.000000e+00
 0.000000e+00
 0.000000e+00
 0.000000e+00
 0.000000e+00
 0.000000e+00
 0.000000e+00
 0.000000e+00
 0.000000e+00
 0.000000e+00
 0.000000e+00
 0.000000e+00
 0.000000e+00
 0.000000e+00
 0.000000e+00
 0.000000e+00
 0.000000e+00
 0.000000e+00
 0.000000e+00
 0.000000e+00
 0.000000e+00
 0.000000e+00
 0.000000e+00
 0.000000e+00
 0.000000e+00
 0.000000e+00
 0.000000e+00
 0.000000e+00
 0.000000e+00
 0.000000e+00
 0.000000e+00
 0.000000e+00
 0.000000e+00
 0.000000e+00
 0.000000e+00
 0.000000e+00
 0.000000e+00
 1.587688e-09
 3.321858e-09
 5.368495e-09
 7.928443e-09
 1.122809e-08
 1.539554e-08
 1.984775e-08
 2.058495e-08
 -1.887375e-09
 -1.394648e-07
 -1.229844e-06
 -1.481423e-08
 7.990547e-07
 1.419018e-07
 2.051483e-09
 -2.615368e-08
 -2.946297e-08
 -2.757067e-08
 -2.419892e-08
 -1.910669e-08
 -1.124642e-08
 1.466352e-10
 1.518686e-08
 3.369492e-08
 5.658088e-08
 8.876292e-08
 1.449381e-07
 2.583960e-07
 2.241937e-07
 1.726619e-05
 -1.503218e-06
 -1.811772e-07
 7.159980e-07
 9.418951e-08
 -3.910236e-08
 -7.182878e-08
 -8.188316e-08
 -8.276202e-08
 -7.342413e-08
 -5.461162e-08
 -3.361212e-08
 -1.794687e-08
 -8.994243e-09
 -3.920014e-09
 5.533491e-12
 3.671217e-09
 6.359584e-09
 6.750232e-09
 4.043570e-09
 0.000000e+00
 0.000000e+00
 3.032202e-09
 6.337515e-09
 1.023018e-08
 1.511046e-08
 2.151049e-08
 3.011348e-08
 4.164308e-08
 5.634729e-08
 7.282527e-08
 9.012357e-08
 3.764194e-08
 1.744622e-05
 -6.230621e-08
 -5.758199e-08
 -7.375418e-08
 -6.936419e-08
 -6.221661e-08
 -5.613144e-08
 -5.002341e-08
 -4.104392e-08
 -2.615331e-08
 -3.431048e-09
 2.704846e-08
 6.360812e-08
 1.053466e-07
 1.567917e-07
 2.366692e-07
 4.066576e-07
 9.947602e-07
 -1.629970e-10
 -1.387569e-06
 1.714604e-05
 -1.712400e-07
 -1.264981e-07
 -1.465601e-07
 -1.587517e-07
 -1.710667e-07
 -1.762816e-07
 -1.578182e-07
 -1.114336e-07
 -6.053467e-08
 -2.843611e-08
 -1.423293e-08
 -7.049484e-09
 -1.456937e-11
 8.213618e-09
 1.512396e-08
 1.679642e-08
 1.108240e-08
 0.000000e+00
 0.000000e+00
 4.210335e-09
 8.780042e-09
 1.412666e-08
 2.080070e-08
 2.960671e-08
 4.185018e-08
 5.998987e-08
 8.983728e-08
 1.494332e-07
 3.094813e-07
 9.295009e-07
 -1.302256e-08
 -1.364362e-06
 -3.201676e-07
 -1.644125e-07
 -1.134352e-07
 -9.322114e-08
 -8.445377e-08
 -7.868802e-08
 -6.908778e-08
 -4.926033e-08
 -1.509150e-08
 3.289782e-08
 8.917212e-08
 1.464486e-07
 2.015848e-07
 2.584127e-07
 3.174394e-07
 2.765483e-07
 9.089908e-08
 6.421000e-07
 -6.631400e-08
 -1.375621e-06
 -3.778286e-07
 -2.588133e-07
 -2.430720e-07
 -2.651253e-07
 -2.955038e-07
 -2.765958e-07
 -1.725465e-07
 -6.299614e-08
 -1.967640e-08
 -1.355620e-08
 -1.097115e-08
 -1.890115e-09
 1.381035e-08
 2.943353e-08
 3.503488e-08
 2.412572e-08
 0.000000e+00
 0.000000e+00
 5.038372e-09
 1.046672e-08
 1.673520e-08
 2.443395e-08
 3.442703e-08
 4.812276e-08
 6.809177e-08
 9.952467e-08
 1.530054e-07
 2.420710e-07
 2.816394e-07
 1.531305e-08
 -2.907697e-07
 -2.794588e-07
 -1.799273e-07
 -1.327086e-07
 -1.139796e-07
 -1.098780e-07
 -1.111812e-07
 -1.077223e-07
 -8.753963e-08
 -4.152035e-08
 3.007001e-08
 1.145033e-07
 1.911462e-07
 2.450692e-07
 2.716458e-07
 2.503782e-07
 7.772638e-08
 -1.049207e-06
 1.559494e-07
 7.401380e-07
 -2.007018e-07
 -3.410826e-07
 -2.966788e-07
 -2.933753e-07
 -3.428712e-07
 -4.640432e-07
 -5.101361e-07
 -2.361395e-07
 2.621854e-08
 2.224255e-08
 -1.399529e-08
 -2.237792e-08
 -1.168531e-08
 1.885422e-08
 5.433782e-08
 7.157828e-08
 5.241767e-08
 0.000000e+00
 0.000000e+00
 5.485984e-09
 1.133525e-08
 1.795587e-08
 2.585524e-08
 3.571707e-08
 4.851242e-08
 6.561602e-08
 8.862221e-08
 1.172277e-07
 1.391404e-07
 1.121928e-07
 8.774971e-10
 -1.193023e-07
 -1.585085e-07
 -1.436057e-07
 -1.256932e-07
 -1.207917e-07
 -1.296115e-07
 -1.479559e-07
 -1.634944e-07
 -1.533290e-07
 -9.579129e-08
 1.269409e-08
 1.488115e-07
 2.612262e-07
 3.143661e-07
 3.203245e-07
 3.027866e-07
 2.738862e-07
 1.703111e-07
 1.751046e-05
 -1.165239e-07
 -2.304800e-07
 -2.918552e-07
 -2.884812e-07
 -2.938104e-07
 -3.493569e-07
 -5.374360e-07
 -1.645997e-06
 -3.728007e-07
 5.465255e-07
 1.086454e-08
 -3.876780e-08
 -5.028523e-08
 -4.559644e-08
 1.778082e-08
 9.816277e-08
 1.480151e-07
 1.206218e-07
 0.000000e+00
 0.000000e+00
 5.577510e-09
 1.144841e-08
 1.792610e-08
 2.536104e-08
 3.414484e-08
 4.466560e-08
 5.709894e-08
 7.070590e-08
 8.195105e-08
 8.137607e-08
 5.474254e-08
 -5.038252e-10
 -5.886104e-08
 -9.234982e-08
 -1.017448e-07
 -1.041021e-07
 -1.133790e-07
 -1.384914e-07
 -1.852222e-07
 -2.449883e-07
 -2.699631e-07
 -2.051948e-07
 -3.899303e-08
 2.097048e-07
 4.014932e-07
 4.319781e-07
 3.886459e-07
 3.692878e-07
 4.622067e-07
 1.021809e-06
 1.589586e-08
 -1.406153e-06
 -4.241324e-07
 -3.029819e-07
 -2.634890e-07
 -2.488511e-07
 -2.529103e-07
 -2.727559e-07
 -3.808578e-07
 1.692459e-05
 -6.138148e-07
 -3.153843e-07
 -3.958133e-08
 -8.784711e-08
 -1.620855e-07
 4.543053e-09
 1.711950e-07
 3.029648e-07
 3.090406e-07
 0.000000e+00
 0.000000e+00
 5.379033e-09
 1.096123e-08
 1.694699e-08
 2.352105e-08
 3.081190e-08
 3.878562e-08
 4.699976e-08
 5.410955e-08
 5.714745e-08
 5.132032e-08
 3.233614e-08
 1.907862e-09
 -2.997055e-08
 -5.299169e-08
 -6.569410e-08
 -7.469461e-08
 -8.990509e-08
 -1.244205e-07
 -2.006419e-07
 -3.586083e-07
 -4.886877e-07
 -4.125697e-07
 -2.053040e-07
 3.320883e-07
 7.518808e-07
 6.154390e-07
 4.263527e-07
 3.485539e-07
 3.564203e-07
 3.368691e-07
 2.095111e-08
 -3.276568e-07
 -3.476529e-07
 -2.642063e-07
 -2.182920e-07
 -1.854830e-07
 -1.381213e-07
 -5.136078e-09
 5.503848e-07
 -5.933299e-07
 -3.115936e-06
 -8.135382e-07
 4.581038e-07
 -3.086001e-09
 -1.110529e-06
 8.493289e-08
 -1.318020e-07
 4.110306e-07
 9.818549e-07
 0.000000e+00
 0.000000e+00
 4.977171e-09
 1.006858e-08
 1.537182e-08
 2.094087e-08
 2.673508e-08
 3.252407e-08
 3.772831e-08
 4.120987e-08
 4.116074e-08
 3.549048e-08
 2.315139e-08
 5.871726e-09
 -1.180963e-08
 -2.541113e-08
 -3.371585e-08
 -3.943138e-08
 -4.852166e-08
 -7.201392e-08
 -1.370771e-07
 -3.360321e-07
 -1.498503e-06
 -4.956265e-07
 -1.698016e-06
 3.216637e-07
 1.998833e-06
 6.828560e-07
 3.475377e-07
 2.422254e-07
 1.955432e-07
 1.223916e-07
 -2.255203e-08
 -1.625831e-07
 -2.072616e-07
 -1.883126e-07
 -1.602860e-07
 -1.318366e-07
 -8.457073e-08
 3.417252e-09
 4.391795e-08
 -2.392637e-07
 -7.282718e-07
 1.564050e-05
 -5.582206e-07
 4.158477e-07
 3.292011e-07
 1.812769e-05
 4.674275e-07
 1.772376e-05
 9.918984e-08
 0.000000e+00
 0.000000e+00
 4.458554e-09
 8.957490e-09
 1.351627e-08
 1.810580e-08
 2.260726e-08
 2.675283e-08
 3.005501e-08
 3.176340e-08
 3.094711e-08
 2.684201e-08
 1.948108e-08
 1.023984e-08
 1.630029e-09
 -3.828849e-09
 -4.803897e-09
 -1.439844e-09
 5.263367e-09
 1.446980e-08
 2.720273e-08
 5.295833e-08
 3.973966e-08
 1.753724e-05
 2.910565e-08
 3.498357e-05
 5.837686e-08
 1.197912e-07
 9.410637e-08
 8.480746e-08
 6.185997e-08
 9.044965e-09
 -6.701940e-08
 -1.242590e-07
 -1.310222e-07
 -1.108268e-07
 -9.896128e-08
 -9.559506e-08
 -7.761748e-08
 -2.856793e-08
 3.112621e-08
 1.227348e-07
 7.022797e-07
 -2.316130e-07
 1.575874e-05
 -2.542274e-06
 9.748210e-07
 2.079817e-06
 1.423630e-07
 -8.571469e-09
 -1.226943e-06
 0.000000e+00
 0.000000e+00
 3.896256e-09
 7.778839e-09
 1.161556e-08
 1.533441e-08
 1.879823e-08
 2.177801e-08
 2.393767e-08
 2.485948e-08
 2.415534e-08
 2.169642e-08
 1.791240e-08
 1.398035e-08
 1.168981e-08
 1.299496e-08
 1.961883e-08
 3.323244e-08
 5.677968e-08
 9.832828e-08
 1.830933e-07
 3.999947e-07
 1.154701e-06
 5.741954e-07
 5.303613e-07
 -2.307346e-07
 -2.706857e-06
 -5.209085e-07
 -1.680783e-07
 -5.827795e-08
 -3.850859e-08
 -7.268795e-08
 -1.317603e-07
 -1.494029e-07
 -8.349683e-08
 -1.676882e-08
 -2.523152e-08
 -7.455005e-08
 -1.099514e-07
 -7.463985e-08
 5.010111e-08
 1.802668e-07
 3.913124e-07
 1.080777e-06
 2.004023e-07
 -1.102120e-06
 3.499398e-05
 1.121210e-07
 4.444622e-08
 -1.154467e-07
 -2.107428e-07
 0.000000e+00
 0.000000e+00
 3.344624e-09
 6.639554e-09
 9.821915e-09
 1.280254e-08
 1.545437e-08
 1.760728e-08
 1.905946e-08
 1.962203e-08
 1.921418e-08
 1.801062e-08
 1.660453e-08
 1.610608e-08
 1.809895e-08
 2.446188e-08
 3.720749e-08
 5.865956e-08
 9.250883e-08
 1.465725e-07
 2.379293e-07
 3.940456e-07
 5.558317e-07
 4.973846e-07
 3.138056e-07
 -1.564560e-07
 -6.184308e-07
 -5.039282e-07
 -2.492647e-07
 -1.248571e-07
 -8.571465e-08
 -1.198847e-07
 -2.384501e-07
 -2.898666e-07
 -3.403403e-08
 1.799277e-07
 8.715106e-08
 -6.561996e-08
 -2.159816e-07
 -2.380888e-07
 7.570399e-08
 2.961154e-07
 -6.448285e-07
 6.983649e-07
 1.565475e-06
 1.872075e-06
 -1.048339e-07
 -2.716688e-06
 -5.428085e-07
 -1.838822e-07
 -7.987779e-08
 0.000000e+00
 0.000000e+00
 2.840495e-09
 5.608426e-09
 8.223554e-09
 1.059183e-08
 1.260325e-08
 1.413798e-08
 1.508723e-08
 1.539692e-08
 1.514024e-08
 1.461790e-08
 1.447237e-08
 1.578992e-08
 2.015195e-08
 2.957499e-08
 4.627138e-08
 7.230077e-08
 1.095232e-07
 1.601756e-07
 2.262855e-07
 3.001006e-07
 3.414072e-07
 2.921923e-07
 1.437884e-07
 -8.651977e-08
 -2.755617e-07
 -2.925724e-07
 -2.033618e-07
 -1.126329e-07
 -6.363245e-08
 -8.316282e-08
 -2.437312e-07
 -1.322777e-06
 -2.635368e-08
 8.540930e-07
 1.718703e-07
 -6.353875e-08
 -2.814091e-07
 -1.326626e-06
 7.899126e-08
 1.153270e-06
 6.775881e-07
 1.810226e-05
 6.165935e-07
 5.121695e-07
 -1.855759e-07
 -8.073341e-07
 -4.818495e-07
 -2.695020e-08
 3.083526e-08
 0.000000e+00
 0.000000e+00
 2.407613e-09
 4.727698e-09
 6.869171e-09
 8.735932e-09
 1.023002e-08
 1.126242e-08
 1.177494e-08
 1.177565e-08
 1.138921e-08
 1.092364e-08
 1.096260e-08
 1.250731e-08
 1.718159e-08
 2.738183e-08
 4.594353e-08
 7.481730e-08
 1.132699e-07
 1.573935e-07
 2.007056e-07
 2.320531e-07
 2.323805e-07
 1.826395e-07
 8.094948e-08
 -4.951010e-08
 -1.557621e-07
 -1.881996e-07
 -1.437855e-07
 -5.722922e-08
 2.242922e-08
 6.564667e-08
 8.488597e-08
 4.083164e-08
 1.747520e-05
 -1.454885e-08
 -2.336939e-08
 -7.969665e-08
 -9.915321e-08
 -9.024455e-08
 1.749658e-05
 3.496787e-07
 1.361787e-06
 6.509797e-07
 -8.113263e-07
 -3.052898e-08
 -3.295102e-07
 -1.585007e-06
 -2.930502e-07
 6.958249e-07
 1.330186e-07
 0.000000e+00
 0.000000e+00
 2.061607e-09
 4.024621e-09
 5.788978e-09
 7.253899e-09
 8.323207e-09
 8.917383e-09
 8.993487e-09
 8.571459e-09
 7.761892e-09
 6.792178e-09
 6.050726e-09
 6.235907e-09
 8.790959e-09
 1.670285e-08
 3.481057e-08
 6.716763e-08
 1.110136e-07
 1.547636e-07
 1.853888e-07
 1.945885e-07
 1.768789e-07
 1.288144e-07
 5.336886e-08
 -3.664406e-08
 -1.198919e-07
 -1.668525e-07
 -1.292863e-07
 8.655449e-09
 1.530312e-07
 2.444599e-07
 3.928170e-07
 1.003610e-06
 6.356990e-08
 -1.284975e-06
 -2.505151e-07
 -1.147396e-07
 -3.067541e-08
 6.166101e-07
 1.190640e-08
 -1.913046e-06
 4.974052e-07
 1.190647e-06
 1.878659e-07
 -6.457837e-08
 -1.231481e-07
 -2.000905e-07
 1.727705e-05
 -1.173632e-07
 -2.548872e-08
 0.000000e+00
 0.000000e+00
 1.813889e-09
 3.519957e-09
 5.008796e-09
 6.170024e-09
 6.897432e-09
 7.100848e-09
 6.725403e-09
 5.774074e-09
 4.319212e-09
 2.476249e-09
 3.225149e-10
 -2.145489e-09
 -4.562585e-09
 -4.155520e-09
 8.183043e-09
 4.617964e-08
 1.086719e-07
 1.663889e-07
 1.918865e-07
 1.841640e-07
 1.528592e-07
 1.041499e-07
 4.194954e-08
 -3.017953e-08
 -1.151675e-07
 -2.322433e-07
 -2.438505e-07
 7.527763e-08
 3.711427e-07
 3.901798e-07
 4.040407e-07
 4.116947e-07
 1.390909e-07
 -1.649405e-07
 -1.580084e-07
 -9.341387e-08
 -1.970565e-07
 -1.172796e-06
 2.590734e-07
 1.147968e-06
 1.792714e-05
 2.000315e-07
 2.355052e-08
 -8.300297e-08
 2.097500e-08
 6.950598e-07
 -1.227028e-07
 -1.332092e-06
 -1.923655e-07
 0.000000e+00
 0.000000e+00
 1.673667e-09
 3.232233e-09
 4.556728e-09
 5.522417e-09
 6.001394e-09
 5.873047e-09
 5.045806e-09
 3.489312e-09
 1.258749e-09
 -1.552562e-09
 -5.071754e-09
 -1.026416e-08
 -1.960643e-08
 -3.546037e-08
 -4.655725e-08
 -5.859017e-09
 1.116718e-07
 2.163492e-07
 2.330188e-07
 1.961863e-07
 1.459109e-07
 9.318088e-08
 3.962415e-08
 -1.421405e-08
 -8.038728e-08
 -2.348324e-07
 -1.272488e-06
 8.431158e-08
 1.039925e-06
 4.517724e-07
 3.321592e-07
 2.735699e-07
 1.641022e-07
 5.857375e-08
 3.864035e-08
 6.188868e-08
 5.936059e-09
 -1.007759e-06
 1.787344e-05
 1.876934e-06
 3.095273e-07
 -1.231452e-06
 -3.003807e-07
 -2.749950e-07
 -2.442051e-07
 -1.965080e-08
 -5.595499e-08
 -1.198612e-07
 3.839253e-08
 0.000000e+00
 0.000000e+00
 1.647849e-09
 3.177497e-09
 4.462722e-09
 5.362411e-09
 5.717162e-09
 5.354361e-09
 4.111313e-09
 1.890540e-09
 -1.246360e-09
 -5.004284e-09
 -9.082446e-09
 -1.445496e-08
 -2.684608e-08
 -6.283986e-08
 -1.533456e-07
 -1.644016e-07
 1.317398e-07
 3.816617e-07
 3.237208e-07
 2.155905e-07
 1.405233e-07
 8.331445e-08
 3.628769e-08
 6.381932e-09
 1.089221e-08
 6.158237e-08
 7.895501e-08
 1.757396e-05
 1.466277e-07
 2.103398e-07
 2.232210e-07
 2.205522e-07
 1.910127e-07
 1.657480e-07
 1.851796e-07
 2.748787e-07
 5.034942e-07
 1.167783e-06
 1.778187e-05
 -9.813465e-07
 -1.610793e-07
 -3.222791e-07
 -2.995810e-07
 -3.391207e-07
 -1.378006e-06
 -2.169995e-07
 -4.582168e-07
 1.166580e-07
 8.080478e-07
 0.000000e+00
 0.000000e+00
 1.738869e-09
 3.364620e-09
 4.750990e-09
 5.744668e-09
 6.151236e-09
 5.725503e-09
 4.180677e-09
 1.252867e-09
 -3.102964e-09
 -8.284988e-09
 -1.250429e-08
 -1.340605e-08
 -1.352181e-08
 -3.609875e-08
 -1.701088e-07
 -1.213863e-06
 1.156076e-07
 1.026678e-06
 3.789853e-07
 1.981766e-07
 1.194667e-07
 6.579293e-08
 1.814784e-08
 -8.879533e-09
 5.390865e-08
 3.098276e-07
 1.037911e-06
 1.492746e-07
 -1.162874e-06
 -6.486685e-08
 1.372349e-07
 2.028007e-07
 2.151309e-07
 2.231769e-07
 2.653155e-07
 3.816229e-07
 6.589398e-07
 1.370649e-06
 2.243207e-07
 -1.405854e-06
 -4.017038e-07
 -2.113393e-07
 -1.058844e-07
 -3.174445e-09
 2.441420e-08
 1.750802e-05
 -6.147045e-09
 1.745027e-05
 -3.074625e-08
 0.000000e+00
 0.000000e+00
 1.940841e-09
 3.786635e-09
 5.425017e-09
 6.705148e-09
 7.409329e-09
 7.216142e-09
 5.662597e-09
 2.143377e-09
 -3.916732e-09
 -1.230807e-08
 -1.977579e-08
 -1.612138e-08
 1.399307e-08
 7.241129e-08
 1.404603e-07
 1.373765e-07
 1.759665e-05
 1.260143e-07
 1.390334e-07
 1.060052e-07
 8.006460e-08
 4.619326e-08
 -9.505941e-09
 -1.077133e-07
 -9.816507e-08
 2.632213e-07
 5.383762e-07
 2.203937e-07
 -1.226880e-07
 -2.889010e-08
 1.655924e-07
 2.357075e-07
 2.416858e-07
 2.459048e-07
 2.772630e-07
 3.508083e-07
 4.667530e-07
 4.952498e-07
 1.423540e-07
 -2.513519e-07
 -2.398907e-07
 -7.311398e-08
 8.568939e-08
 3.304474e-07
 1.055649e-06
 3.173508e-07
 -3.669155e-07
 -2.058880e-07
 -1.306406e-06
 0.000000e+00
 0.000000e+00
 2.235082e-09
 4.409860e-09
 6.446416e-09
 8.224430e-09
 9.540537e-09
 1.003973e-08
 9.101765e-09
 5.666009e-09
 -1.970913e-09
 -1.601426e-08
 -3.661607e-08
 -4.761137e-08
 7.415074e-09
 1.762448e-07
 4.460439e-07
 1.106698e-06
 1.695248e-07
 -1.180520e-06
 -1.378834e-07
 1.051424e-08
 4.837963e-08
 4.662909e-08
 5.948369e-09
 -1.439659e-07
 -1.190205e-06
 1.362045e-07
 9.845052e-07
 1.480924e-07
 -1.372232e-07
 8.144675e-08
 3.471227e-07
 3.277679e-07
 2.632736e-07
 2.399044e-07
 2.462553e-07
 2.674192e-07
 2.734238e-07
 2.016825e-07
 2.255840e-08
 -1.158384e-07
 -6.196589e-08
 8.775908e-08
 2.184009e-07
 3.611428e-07
 4.747903e-07
 3.256535e-07
 9.768045e-08
 -1.008990e-07
 -2.160700e-07
 0.000000e+00
 0.000000e+00
 2.586883e-09
 5.164666e-09
 7.713265e-09
 1.018158e-08
 1.244629e-08
 1.422879e-08
 1.492740e-08
 1.326408e-08
 6.493690e-09
 -1.143249e-08
 -5.377619e-08
 -1.437489e-07
 -1.363834e-07
 2.107879e-07
 5.601935e-07
 5.659173e-07
 2.278590e-07
 -1.082438e-07
 -1.049178e-07
 -4.551263e-09
 4.830382e-08
 7.789847e-08
 1.000403e-07
 1.297989e-07
 1.103308e-07
 1.755964e-05
 3.824976e-08
 -1.301715e-07
 -1.242108e-06
 6.856369e-08
 9.965122e-07
 3.817964e-07
 2.399671e-07
 2.047612e-07
 1.983936e-07
 1.917115e-07
 1.571777e-07
 5.857684e-08
 -1.318701e-07
 -2.366191e-07
 2.215355e-08
 3.050331e-07
 3.338130e-07
 3.320342e-07
 3.250133e-07
 2.461389e-07
 1.221489e-07
 9.389160e-09
 -4.058713e-08
 0.000000e+00
 0.000000e+00
 2.946191e-09
 5.944041e-09
 9.049441e-09
 1.231857e-08
 1.578494e-08
 1.939962e-08
 2.289636e-08
 2.547857e-08
 2.499173e-08
 1.533382e-08
 -2.320274e-08
 -1.672312e-07
 -1.202566e-06
 1.567117e-07
 1.104465e-06
 4.553621e-07
 1.978649e-07
 4.205261e-08
 1.054173e-09
 2.809393e-08
 6.944748e-08
 1.161419e-07
 1.897336e-07
 3.684834e-07
 1.017614e-06
 1.118496e-07
 -1.205723e-06
 -1.308079e-07
 1.304175e-09
 1.751589e-05
 8.643007e-08
 1.361519e-07
 1.375062e-07
 1.461683e-07
 1.504549e-07
 1.416481e-07
 1.055424e-07
 1.578562e-08
 -2.010906e-07
 -1.312734e-06
 -5.394571e-09
 9.463369e-07
 3.893715e-07
 3.016617e-07
 2.715983e-07
 2.135613e-07
 1.332001e-07
 5.902714e-08
 1.421313e-08
 0.000000e+00
 0.000000e+00
 3.254765e-09
 6.616409e-09
 1.021907e-08
 1.424641e-08
 1.894323e-08
 2.461128e-08
 3.159002e-08
 4.024068e-08
 5.098885e-08
 6.458266e-08
 8.321344e-08
 1.163844e-07
 1.081878e-07
 1.758678e-05
 1.376872e-07
 1.526502e-07
 9.791429e-08
 5.422294e-08
 4.060377e-08
 5.632548e-08
 8.878541e-08
 1.339766e-07
 2.014840e-07
 3.083995e-07
 3.756266e-07
 1.559578e-07
 -6.382478e-08
 1.449210e-07
 9.102016e-07
 6.339109e-08
 -1.225524e-06
 -1.439452e-07
 3.159833e-08
 9.196967e-08
 1.146383e-07
 1.172628e-07
 1.028660e-07
 7.338781e-08
 4.187301e-08
 -3.604262e-08
 1.739642e-05
 -1.562294e-08
 1.474717e-07
 2.488536e-07
 2.595052e-07
 2.059733e-07
 1.369161e-07
 7.588722e-08
 3.130654e-08
 0.000000e+00
 0.000000e+00
 3.461134e-09
 7.056314e-09
 1.097467e-08
 1.551475e-08
 2.113667e-08
 2.851456e-08
 3.861783e-08
 5.294311e-08
 7.430553e-08
 1.095390e-07
 1.792581e-07
 3.585374e-07
 1.010036e-06
 1.065167e-07
 -1.212666e-06
 -1.564443e-07
 -8.070752e-09
 3.064616e-08
 4.874309e-08
 6.989991e-08
 9.773285e-08
 1.316427e-07
 1.704022e-07
 2.033640e-07
 1.944083e-07
 1.233150e-07
 9.165763e-08
 2.052263e-07
 3.280002e-07
 1.299220e-07
 -1.365463e-07
 -1.030936e-07
 1.050829e-08
 6.858401e-08
 9.696845e-08
 1.097419e-07
 1.167133e-07
 1.385187e-07
 2.504181e-07
 8.158661e-07
 -1.971403e-07
 -1.504327e-06
 -1.095570e-07
 3.202490e-07
 3.101088e-07
 2.084953e-07
 1.306482e-07
 7.440222e-08
 3.307501e-08
 0.000000e+00
 0.000000e+00
 3.542654e-09
 7.191348e-09
 1.113555e-08
 1.573647e-08
 2.162022e-08
 2.976810e-08
 4.160230e-08
 5.913647e-08
 8.547904e-08
 1.263508e-07
 1.931111e-07
 3.002397e-07
 3.625623e-07
 1.207662e-07
 -1.644531e-07
 -1.400792e-07
 -3.403748e-08
 1.947632e-08
 5.095619e-08
 7.641308e-08
 1.007947e-07
 1.234507e-07
 1.395413e-07
 1.380893e-07
 1.054310e-07
 5.477275e-08
 6.188038e-08
 1.711136e-07
 2.534992e-07
 1.851827e-07
 6.681913e-08
 2.528355e-08
 4.403342e-08
 7.236911e-08
 9.414815e-08
 1.093179e-07
 1.221359e-07
 1.412470e-07
 1.764335e-07
 1.390038e-07
 -2.556900e-07
 -1.505876e-06
 -6.194980e-08
 9.757303e-07
 3.594091e-07
 1.809841e-07
 1.032185e-07
 5.799118e-08
 2.619671e-08
 0.000000e+00
 0.000000e+00
 3.531879e-09
 7.059322e-09
 1.068393e-08
 1.473493e-08
 1.991232e-08
 2.742604e-08
 3.904264e-08
 5.690213e-08
 8.305705e-08
 1.187973e-07
 1.626889e-07
 2.011977e-07
 1.911778e-07
 9.611460e-08
 -9.519421e-09
 -3.592157e-08
 -7.902769e-09
 2.727577e-08
 5.739426e-08
 8.319491e-08
 1.050086e-07
 1.207362e-07
 1.250102e-07
 1.072732e-07
 4.952627e-08
 -7.251827e-08
 -1.125694e-07
 1.616863e-07
 3.860137e-07
 2.919094e-07
 1.575868e-07
 9.161784e-08
 7.661502e-08
 8.445619e-08
 9.840338e-08
 1.119454e-07
 1.223884e-07
 1.238455e-07
 9.168637e-08
 -3.898057e-08
 -1.554039e-07
 -8.691945e-09
 1.766721e-05
 1.770922e-07
 1.343131e-07
 7.779953e-08
 4.892207e-08
 2.949111e-08
 1.394402e-08
 0.000000e+00
 0.000000e+00
 3.542749e-09
 6.867332e-09
 9.867519e-09
 1.269421e-08
 1.596758e-08
 2.105243e-08
 3.022876e-08
 4.625892e-08
 7.075223e-08
 1.016720e-07
 1.315288e-07
 1.469756e-07
 1.324231e-07
 8.638400e-08