<VTKFile type="UnstructuredGrid"  version="0.1"   >
<UnstructuredGrid>  
<Piece  NumberOfPoints="     2601"  NumberOfCells="     5000">  
<Points>  
<DataArray  type="Float64"  NumberOfComponents="3"  format="ascii">  
 0.000000 0.000000 0.000000 
 0.020000 0.000000 0.000000 
 0.040000 0.000000 0.000000 
 0.060000 0.000000 0.000000 
 0.080000 0.000000 0.000000 
 0.100000 0.000000 0.000000 
 0.120000 0.000000 0.000000 
 0.140000 0.000000 0.000000 
 0.160000 0.000000 0.000000 
 0.180000 0.000000 0.000000 
 0.200000 0.000000 0.000000 
 0.220000 0.000000 0.000000 
 0.240000 0.000000 0.000000 
 0.260000 0.000000 0.000000 
 0.280000 0.000000 0.000000 
 0.300000 0.000000 0.000000 
 0.320000 0.000000 0.000000 
 0.340000 0.000000 0.000000 
 0.360000 0.000000 0.000000 
 0.380000 0.000000 0.000000 
 0.400000 0.000000 0.000000 
 0.420000 0.000000 0.000000 
 0.440000 0.000000 0.000000 
 0.460000 0.000000 0.000000 
 0.480000 0.000000 0.000000 
 0.500000 0.000000 0.000000 
 0.520000 0.000000 0.000000 
 0.540000 0.000000 0.000000 
 0.560000 0.000000 0.000000 
 0.580000 0.000000 0.000000 
 0.600000 0.000000 0.000000 
 0.620000 0.000000 0.000000 
 0.640000 0.000000 0.000000 
 0.660000 0.000000 0.000000 
 0.680000 0.000000 0.000000 
 0.700000 0.000000 0.000000 
 0.720000 0.000000 0.000000 
 0.740000 0.000000 0.000000 
 0.760000 0.000000 0.000000 
 0.780000 0.000000 0.000000 
 0.800000 0.000000 0.000000 
 0.820000 0.000000 0.000000 
 0.840000 0.000000 0.000000 
 0.860000 0.000000 0.000000 
 0.880000 0.000000 0.000000 
 0.900000 0.000000 0.000000 
 0.920000 0.000000 0.000000 
 0.940000 0.000000 0.000000 
 0.960000 0.000000 0.000000 
 0.980000 0.000000 0.000000 
 1.000000 0.000000 0.000000 
 0.000000 0.020000 0.000000 
 0.020000 0.020000 0.000000 
 0.040000 0.020000 0.000000 
 0.060000 0.020000 0.000000 
 0.080000 0.020000 0.000000 
 0.100000 0.020000 0.000000 
 0.120000 0.020000 0.000000 
 0.140000 0.020000 0.000000 
 0.160000 0.020000 0.000000 
 0.180000 0.020000 0.000000 
 0.200000 0.020000 0.000000 
 0.220000 0.020000 0.000000 
 0.240000 0.020000 0.000000 
 0.260000 0.020000 0.000000 
 0.280000 0.020000 0.000000 
 0.300000 0.020000 0.000000 
 0.320000 0.020000 0.000000 
 0.340000 0.020000 0.000000 
 0.360000 0.020000 0.000000 
 0.380000 0.020000 0.000000 
 0.400000 0.020000 0.000000 
 0.420000 0.020000 0.000000 
 0.440000 0.020000 0.000000 
 0.460000 0.020000 0.000000 
 0.480000 0.020000 0.000000 
 0.500000 0.020000 0.000000 
 0.520000 0.020000 0.000000 
 0.540000 0.020000 0.000000 
 0.560000 0.020000 0.000000 
 0.580000 0.020000 0.000000 
 0.600000 0.020000 0.000000 
 0.620000 0.020000 0.000000 
 0.640000 0.020000 0.000000 
 0.660000 0.020000 0.000000 
 0.680000 0.020000 0.000000 
 0.700000 0.020000 0.000000 
 0.720000 0.020000 0.000000 
 0.740000 0.020000 0.000000 
 0.760000 0.020000 0.000000 
 0.780000 0.020000 0.000000 
 0.800000 0.020000 0.000000 
 0.820000 0.020000 0.000000 
 0.840000 0.020000 0.000000 
 0.860000 0.020000 0.000000 
 0.880000 0.020000 0.000000 
 0.900000 0.020000 0.000000 
 0.920000 0.020000 0.000000 
 0.940000 0.020000 0.000000 
 0.960000 0.020000 0.000000 
 0.980000 0.020000 0.000000 
 1.000000 0.020000 0.000000 
 0.000000 0.040000 0.000000 
 0.020000 0.040000 0.000000 
 0.040000 0.040000 0.000000 
 0.060000 0.040000 0.000000 
 0.080000 0.040000 0.000000 
 0.100000 0.040000 0.000000 
 0.120000 0.040000 0.000000 
 0.140000 0.040000 0.000000 
 0.160000 0.040000 0.000000 
 0.180000 0.040000 0.000000 
 0.200000 0.040000 0.000000 
 0.220000 0.040000 0.000000 
 0.240000 0.040000 0.000000 
 0.260000 0.040000 0.000000 
 0.280000 0.040000 0.000000 
 0.300000 0.040000 0.000000 
 0.320000 0.040000 0.000000 
 0.340000 0.040000 0.000000 
 0.360000 0.040000 0.000000 
 0.380000 0.040000 0.000000 
 0.400000 0.040000 0.000000 
 0.420000 0.040000 0.000000 
 0.440000 0.040000 0.000000 
 0.460000 0.040000 0.000000 
 0.480000 0.040000 0.000000 
 0.500000 0.040000 0.000000 
 0.520000 0.040000 0.000000 
 0.540000 0.040000 0.000000 
 0.560000 0.040000 0.000000 
 0.580000 0.040000 0.000000 
 0.600000 0.040000 0.000000 
 0.620000 0.040000 0.000000 
 0.640000 0.040000 0.000000 
 0.660000 0.040000 0.000000 
 0.680000 0.040000 0.000000 
 0.700000 0.040000 0.000000 
 0.720000 0.040000 0.000000 
 0.740000 0.040000 0.000000 
 0.760000 0.040000 0.000000 
 0.780000 0.040000 0.000000 
 0.800000 0.040000 0.000000 
 0.820000 0.040000 0.000000 
 0.840000 0.040000 0.000000 
 0.860000 0.040000 0.000000 
 0.880000 0.040000 0.000000 
 0.900000 0.040000 0.000000 
 0.920000 0.040000 0.000000 
 0.940000 0.040000 0.000000 
 0.960000 0.040000 0.000000 
 0.980000 0.040000 0.000000 
 1.000000 0.040000 0.000000 
 0.000000 0.060000 0.000000 
 0.020000 0.060000 0.000000 
 0.040000 0.060000 0.000000 
 0.060000 0.060000 0.000000 
 0.080000 0.060000 0.000000 
 0.100000 0.060000 0.000000 
 0.120000 0.060000 0.000000 
 0.140000 0.060000 0.000000 
 0.160000 0.060000 0.000000 
 0.180000 0.060000 0.000000 
 0.200000 0.060000 0.000000 
 0.220000 0.060000 0.000000 
 0.240000 0.060000 0.000000 
 0.260000 0.060000 0.000000 
 0.280000 0.060000 0.000000 
 0.300000 0.060000 0.000000 
 0.320000 0.060000 0.000000 
 0.340000 0.060000 0.000000 
 0.360000 0.060000 0.000000 
 0.380000 0.060000 0.000000 
 0.400000 0.060000 0.000000 
 0.420000 0.060000 0.000000 
 0.440000 0.060000 0.000000 
 0.460000 0.060000 0.000000 
 0.480000 0.060000 0.000000 
 0.500000 0.060000 0.000000 
 0.520000 0.060000 0.000000 
 0.540000 0.060000 0.000000 
 0.560000 0.060000 0.000000 
 0.580000 0.060000 0.000000 
 0.600000 0.060000 0.000000 
 0.620000 0.060000 0.000000 
 0.640000 0.060000 0.000000 
 0.660000 0.060000 0.000000 
 0.680000 0.060000 0.000000 
 0.700000 0.060000 0.000000 
 0.720000 0.060000 0.000000 
 0.740000 0.060000 0.000000 
 0.760000 0.060000 0.000000 
 0.780000 0.060000 0.000000 
 0.800000 0.060000 0.000000 
 0.820000 0.060000 0.000000 
 0.840000 0.060000 0.000000 
 0.860000 0.060000 0.000000 
 0.880000 0.060000 0.000000 
 0.900000 0.060000 0.000000 
 0.920000 0.060000 0.000000 
 0.940000 0.060000 0.000000 
 0.960000 0.060000 0.000000 
 0.980000 0.060000 0.000000 
 1.000000 0.060000 0.000000 
 0.000000 0.080000 0.000000 
 0.020000 0.080000 0.000000 
 0.040000 0.080000 0.000000 
 0.060000 0.080000 0.000000 
 0.080000 0.080000 0.000000 
 0.100000 0.080000 0.000000 
 0.120000 0.080000 0.000000 
 0.140000 0.080000 0.000000 
 0.160000 0.080000 0.000000 
 0.180000 0.080000 0.000000 
 0.200000 0.080000 0.000000 
 0.220000 0.080000 0.000000 
 0.240000 0.080000 0.000000 
 0.260000 0.080000 0.000000 
 0.280000 0.080000 0.000000 
 0.300000 0.080000 0.000000 
 0.320000 0.080000 0.000000 
 0.340000 0.080000 0.000000 
 0.360000 0.080000 0.000000 
 0.380000 0.080000 0.000000 
 0.400000 0.080000 0.000000 
 0.420000 0.080000 0.000000 
 0.440000 0.080000 0.000000 
 0.460000 0.080000 0.000000 
 0.480000 0.080000 0.000000 
 0.500000 0.080000 0.000000 
 0.520000 0.080000 0.000000 
 0.540000 0.080000 0.000000 
 0.560000 0.080000 0.000000 
 0.580000 0.080000 0.000000 
 0.600000 0.080000 0.000000 
 0.620000 0.080000 0.000000 
 0.640000 0.080000 0.000000 
 0.660000 0.080000 0.000000 
 0.680000 0.080000 0.000000 
 0.700000 0.080000 0.000000 
 0.720000 0.080000 0.000000 
 0.740000 0.080000 0.000000 
 0.760000 0.080000 0.000000 
 0.780000 0.080000 0.000000 
 0.800000 0.080000 0.000000 
 0.820000 0.080000 0.000000 
 0.840000 0.080000 0.000000 
 0.860000 0.080000 0.000000 
 0.880000 0.080000 0.000000 
 0.900000 0.080000 0.000000 
 0.920000 0.080000 0.000000 
 0.940000 0.080000 0.000000 
 0.960000 0.080000 0.000000 
 0.980000 0.080000 0.000000 
 1.000000 0.080000 0.000000 
 0.000000 0.100000 0.000000 
 0.020000 0.100000 0.000000 
 0.040000 0.100000 0.000000 
 0.060000 0.100000 0.000000 
 0.080000 0.100000 0.000000 
 0.100000 0.100000 0.000000 
 0.120000 0.100000 0.000000 
 0.140000 0.100000 0.000000 
 0.160000 0.100000 0.000000 
 0.180000 0.100000 0.000000 
 0.200000 0.100000 0.000000 
 0.220000 0.100000 0.000000 
 0.240000 0.100000 0.000000 
 0.260000 0.100000 0.000000 
 0.280000 0.100000 0.000000 
 0.300000 0.100000 0.000000 
 0.320000 0.100000 0.000000 
 0.340000 0.100000 0.000000 
 0.360000 0.100000 0.000000 
 0.380000 0.100000 0.000000 
 0.400000 0.100000 0.000000 
 0.420000 0.100000 0.000000 
 0.440000 0.100000 0.000000 
 0.460000 0.100000 0.000000 
 0.480000 0.100000 0.000000 
 0.500000 0.100000 0.000000 
 0.520000 0.100000 0.000000 
 0.540000 0.100000 0.000000 
 0.560000 0.100000 0.000000 
 0.580000 0.100000 0.000000 
 0.600000 0.100000 0.000000 
 0.620000 0.100000 0.000000 
 0.640000 0.100000 0.000000 
 0.660000 0.100000 0.000000 
 0.680000 0.100000 0.000000 
 0.700000 0.100000 0.000000 
 0.720000 0.100000 0.000000 
 0.740000 0.100000 0.000000 
 0.760000 0.100000 0.000000 
 0.780000 0.100000 0.000000 
 0.800000 0.100000 0.000000 
 0.820000 0.100000 0.000000 
 0.840000 0.100000 0.000000 
 0.860000 0.100000 0.000000 
 0.880000 0.100000 0.000000 
 0.900000 0.100000 0.000000 
 0.920000 0.100000 0.000000 
 0.940000 0.100000 0.000000 
 0.960000 0.100000 0.000000 
 0.980000 0.100000 0.000000 
 1.000000 0.100000 0.000000 
 0.000000 0.120000 0.000000 
 0.020000 0.120000 0.000000 
 0.040000 0.120000 0.000000 
 0.060000 0.120000 0.000000 
 0.080000 0.120000 0.000000 
 0.100000 0.120000 0.000000 
 0.120000 0.120000 0.000000 
 0.140000 0.120000 0.000000 
 0.160000 0.120000 0.000000 
 0.180000 0.120000 0.000000 
 0.200000 0.120000 0.000000 
 0.220000 0.120000 0.000000 
 0.240000 0.120000 0.000000 
 0.260000 0.120000 0.000000 
 0.280000 0.120000 0.000000 
 0.300000 0.120000 0.000000 
 0.320000 0.120000 0.000000 
 0.340000 0.120000 0.000000 
 0.360000 0.120000 0.000000 
 0.380000 0.120000 0.000000 
 0.400000 0.120000 0.000000 
 0.420000 0.120000 0.000000 
 0.440000 0.120000 0.000000 
 0.460000 0.120000 0.000000 
 0.480000 0.120000 0.000000 
 0.500000 0.120000 0.000000 
 0.520000 0.120000 0.000000 
 0.540000 0.120000 0.000000 
 0.560000 0.120000 0.000000 
 0.580000 0.120000 0.000000 
 0.600000 0.120000 0.000000 
[...]
<PointData  Scalars="U"> 
<DataArray  type="Float64"  Name="U"  format="ascii"> 
 0.000000e+00
 0.000000e+00
 0.000000e+00
 0.000000e+00
 0.000000e+00
 0.000000e+00
 0.000000e+00
 0.000000e+00
 0.000000e+00
 0.000000e+00
 0.000000e+00
 0.000000e+00
 0.000000e+00
 0.000000e+00
 0.000000e+00
 0.000000e+00
 0.000000e+00
 0.000000e+00
 0.000000e+00
 0.000000e+00
 0.000000e+00
 0.000000e+00
 0.000000e+00
 0.000000e+00
 0.000000e+00
 0.000000e+00
 0.000000e+00
 0.000000e+00
 0.000000e+00
 0.000000e+00
 0.000000e+00
 0.000000e+00
 0.000000e+00
 0.000000e+00
 0.000000e+00
 0.000000e+00
 0.000000e+00
 0.000000e+00
 0.000000e+00
 0.000000e+00
 0.000000e+00
 0.000000e+00
 0.000000e+00
 0.000000e+00
 0.000000e+00
 0.000000e+00
 0.000000e+00
 0.000000e+00
 0.000000e+00
 0.000000e+00
 0.000000e+00
 0.000000e+00
 5.412198e-10
 4.253374e-10
 -1.184076e-09
 -5.370069e-09
 -1.302192e-08
 -2.283998e-08
 -2.728625e-08
 -1.365445e-08
 1.676065e-08
 3.219611e-08
 -1.061933e-08
 -1.615013e-07
 -3.674851e-07
 -1.215308e-06
 2.310695e-07
 1.004432e-06
 2.684265e-07
 8.170900e-08
 7.364985e-09
 -1.450308e-07
 -1.257814e-06
 -1.740931e-07
 -4.455081e-07
 1.080381e-07
 7.620748e-07
 5.085230e-08
 -7.701021e-08
 -1.992960e-08
 4.320068e-08
 6.123261e-09
 -1.359918e-07
 -2.235388e-07
 -2.335034e-08
 1.225172e-07
 -5.889352e-08
 -1.933420e-07
 7.199068e-09
 1.806157e-07
 7.058308e-08
 -6.001032e-08
 -9.302531e-08
 -2.201517e-08
 5.904124e-08
 7.671089e-08
 6.219449e-08
 4.807540e-08
 3.792720e-08
 2.731561e-08
 1.345991e-08
 0.000000e+00
 0.000000e+00
 1.707683e-09
 2.292312e-09
 2.012379e-10
 -6.999850e-09
 -2.277923e-08
 -4.948143e-08
 -7.486202e-08
 -5.081774e-08
 4.714644e-08
 1.232783e-07
 7.909714e-08
 -1.348330e-07
 -1.257373e-06
 -1.147553e-08
 1.837612e-05
 3.052217e-07
 1.603093e-07
 7.750912e-08
 6.066798e-08
 8.040601e-08
 5.221963e-08
 1.749760e-05
 -4.453742e-08
 1.736794e-05
 -1.993879e-07
 -2.977862e-07
 -3.326797e-07
 -3.538984e-08
 2.108852e-07
 1.110879e-07
 -1.616072e-07
 -1.314834e-06
 -7.913143e-08
 7.351057e-07
 -8.197222e-08
 -1.301788e-06
 -3.760417e-08
 8.137576e-07
 8.376002e-08
 -2.195579e-07
 -3.159661e-07
 -4.898186e-08
 2.075263e-07
 1.809185e-07
 1.180745e-07
 9.152830e-08
 7.683352e-08
 5.811759e-08
 3.145989e-08
 0.000000e+00
 0.000000e+00
 3.927276e-09
 6.685098e-09
 6.484401e-09
 -8.675648e-11
 -2.013613e-08
 -6.873051e-08
 -1.723374e-07
 -1.923243e-07
 1.012853e-07
 3.546852e-07
 3.056405e-07
 2.226965e-07
 1.774605e-07
 1.818532e-05
 4.107492e-08
 -1.048939e-06
 -7.049284e-08
 1.299309e-08
 8.216614e-08
 2.739034e-07
 9.760290e-07
 2.380508e-07
 -4.405478e-07
 -3.140184e-07
 -1.550961e-06
 -6.243626e-07
 -1.500848e-06
 -8.268322e-08
 8.911571e-07
 2.739705e-07
 1.059054e-07
 -2.003604e-08
 1.736068e-05
 -1.586563e-07
 -1.206878e-07
 -9.157565e-08
 1.742126e-05
 -7.618265e-08
 -1.595834e-07
 -3.900201e-07
 -1.480186e-06
 -1.469411e-07
 8.107833e-07
 2.357270e-07
 1.341967e-07
 1.256236e-07
 1.218198e-07
 9.808422e-08
 5.437197e-08
 0.000000e+00
 0.000000e+00
 7.222398e-09
 1.379249e-08
 1.858470e-08
 1.906596e-08
 8.600650e-09
 -3.332381e-08
 -1.844547e-07
 -1.231639e-06
 1.130530e-07
 1.061309e-06
 4.883536e-07
 4.837268e-07
 9.825385e-07
 -9.876011e-07
 -1.272731e-06
 3.896073e-07
 -7.078222e-08
 -6.318781e-08
 5.688168e-09
 1.355851e-07
 2.627463e-07
 1.659729e-07
 2.769426e-08
 -1.378933e-07
 -3.516177e-07
 -3.272598e-07
 -2.294808e-07
 1.738696e-05
 6.342414e-08
 1.647625e-07
 2.750565e-07
 8.542218e-07
 -1.256115e-07
 -1.527092e-06
 -3.451141e-07
 7.226253e-07
 8.085308e-08
 -1.311259e-06
 -3.740476e-07
 -2.819817e-07
 -2.955802e-07
 1.720751e-05
 -1.579615e-07
 -1.051310e-08
 8.535967e-08
 1.628616e-07
 1.905782e-07
 1.594104e-07
 8.793375e-08
 0.000000e+00
 0.000000e+00
 1.110099e-08
 2.247981e-08
 3.444924e-08
 4.744746e-08
 6.233743e-08
 8.160901e-08
 1.155618e-07
 1.106388e-07
 1.760173e-05
 1.906527e-07
 2.972198e-07
 4.074509e-07
 4.900574e-07
 1.807293e-07
 1.723596e-05
 -3.212307e-07
 -2.263336e-07
 -1.768403e-07
 -1.333307e-07
 -8.122372e-08
 -5.761793e-08
 -5.568205e-08
 1.170251e-07
 2.006401e-07
 3.249194e-08
 -2.679141e-08
 5.697971e-07
 -3.704443e-08
 -1.077747e-06
 -1.296212e-08
 1.446450e-07
 1.820196e-07
 -1.058448e-07
 -5.100973e-07
 -1.451404e-06
 3.094675e-08
 7.362261e-07
 -1.882215e-07
 -3.260328e-07
 -1.777642e-07
 4.424823e-07
 -4.148332e-07
 -1.561673e-06
 -2.842668e-07
 5.766426e-08
 2.532718e-07
 3.242178e-07
 2.613462e-07
 1.360288e-07
 0.000000e+00
 0.000000e+00
 1.470635e-08
 3.059311e-08
 4.933934e-08
 7.412794e-08
 1.125022e-07
 1.862414e-07
 3.722650e-07
 1.036391e-06
 1.570710e-07
 -1.117137e-06
 1.542360e-08
 2.756401e-07
 4.761267e-07
 1.008667e-06
 -5.968155e-08
 -1.466473e-06
 -4.191298e-07
 -2.680192e-07
 -2.890969e-07
 -3.051018e-07
 -1.619505e-07
 -1.004375e-06
 2.071808e-07
 9.641322e-07
 2.265198e-07
 -4.414343e-08
 -1.104792e-06
 -2.718039e-08
 6.226367e-07
 4.296949e-08
 1.445282e-08
 -3.320757e-09
 -8.231077e-08
 -1.300385e-07
 -1.247263e-07
 1.736906e-05
 -1.647639e-07
 -2.578256e-07
 -3.375724e-07
 -3.591670e-07
 -4.492876e-07
 -7.001842e-07
 -6.130295e-07
 -1.832437e-07
 1.246922e-07
 4.679529e-07
 6.140196e-07
 4.172678e-07
 1.866943e-07
 0.000000e+00
 0.000000e+00
 1.720317e-08
 3.605818e-08
 5.877398e-08
 8.902440e-08
 1.337446e-07
 2.061572e-07
 3.230502e-07
 4.019146e-07
 1.865971e-07
 -5.877705e-08
 2.090023e-08
 1.959861e-07
 3.246755e-07
 3.422096e-07
 3.176745e-08
 -3.016914e-07
 -2.972564e-07
 -2.171717e-07
 -2.945083e-07
 -1.302863e-06
 5.728874e-08
 9.399811e-07
 1.774436e-05
 1.074444e-07
 8.829538e-08
 8.599805e-08
 3.614445e-08
 1.741018e-05
 -1.357405e-07
 -1.166511e-07
 -1.016731e-07
 -9.383251e-08
 -8.485891e-08
 7.194646e-08
 7.887563e-07
 -5.947327e-08
 -1.420365e-06
 -4.535687e-07
 -4.031680e-07
 -5.471199e-07
 -8.496454e-07
 -1.979977e-06
 -7.063384e-07
 5.242454e-07
 -4.610926e-07
 8.088033e-07
 1.401788e-06
 5.120645e-07
 1.868221e-07
 0.000000e+00
 0.000000e+00
 1.813221e-08
 3.788322e-08
 6.117190e-08
 9.050000e-08
 1.288883e-07
 1.777352e-07
 2.264027e-07
 2.336789e-07
 1.636826e-07
 9.011151e-08
 9.972762e-08
 1.599487e-07
 2.037865e-07
 1.768190e-07
 5.624622e-08
 -6.532826e-08
 -8.876723e-08
 -3.826772e-08
 4.576759e-08
 1.080095e-07
 1.775194e-05
 9.387955e-07
 5.817472e-08
 -1.262504e-06
 -1.467835e-07
 1.823747e-07
 8.609996e-07
 -6.438797e-08
 -1.410493e-06
 -3.555858e-07
 -1.928328e-07
 -1.620707e-07
 -2.082658e-07
 -1.518978e-07
 1.663875e-07
 1.381339e-07
 -2.353610e-07
 -3.373260e-07
 -3.256066e-07
 -4.535714e-07
 -1.567725e-06
 -6.368814e-07
 1.543603e-05
 -1.075538e-06
 1.908732e-06
 1.893642e-05
 4.816878e-07
 2.144909e-07
 7.741207e-08
 0.000000e+00
 0.000000e+00
 1.749200e-08
 3.627256e-08
 5.765573e-08
 8.283125e-08
 1.121622e-07
 1.431854e-07
 1.672120e-07
 1.700911e-07
 1.483546e-07
 1.254543e-07
 1.260282e-07
 1.439342e-07
 1.536334e-07
 1.332927e-07
 8.416388e-08
 4.142527e-08
 4.590831e-08
 1.218695e-07
 3.337093e-07
 1.044412e-06
 2.399899e-07
 -1.018993e-06
 -1.901510e-07
 -2.869349e-07
 -1.535165e-07
 7.255655e-08
 1.854873e-07
 -4.055428e-08
 -3.208651e-07
 -2.898570e-07
 -1.807673e-07
 -1.559287e-07
 -2.706745e-07
 -1.309493e-06
 -2.014599e-08
 7.720518e-07
 6.679017e-09
 -1.813843e-07
 -1.459843e-07
 3.014073e-08
 3.019452e-07
 1.852841e-05
 1.828006e-07
 3.392511e-05
 1.813073e-05
 -3.891804e-08
 -1.317619e-06
 -2.551719e-07
 -7.847583e-08
 0.000000e+00
 0.000000e+00
 1.557143e-08
 3.205186e-08
 5.024455e-08
 7.059839e-08
 9.265507e-08
 1.141699e-07
 1.306452e-07
 1.373588e-07
 1.346742e-07
 1.303337e-07
 1.316903e-07
 1.369449e-07
 1.372576e-07
 1.258715e-07
 1.066122e-07
 9.560979e-08
 1.129994e-07
 1.760449e-07
 2.978109e-07
 3.889581e-07
 1.767234e-07
 -1.189762e-07
 -1.786761e-07
 -1.546163e-07
 -9.492869e-08
 -1.122303e-08
 1.935390e-08
 -4.644028e-08
 -1.294553e-07
 -1.361152e-07
 -9.102512e-08
 -4.300004e-08
 -3.994711e-10
 -2.683997e-08
 1.739731e-05
 -1.340181e-07
 -1.832311e-07
 -2.215113e-07
 -9.091751e-08
 3.637928e-07
 1.489001e-06
 1.179604e-06
 1.100954e-06
 7.268276e-07
 -2.636173e-06
 -1.941406e-06
 -7.651076e-07
 -4.185168e-07
 -1.636129e-07
 0.000000e+00
 0.000000e+00
 1.272804e-08
 2.606853e-08
 4.053313e-08
 5.636212e-08
 7.324475e-08
 9.002177e-08
 1.047491e-07
 1.156467e-07
 1.226322e-07
 1.275745e-07
 1.320854e-07
 1.352749e-07
 1.345235e-07
 1.287580e-07
 1.214269e-07
 1.204805e-07
 1.346270e-07
 1.674522e-07
 2.061248e-07
 2.031357e-07
 1.110089e-07
 -1.134176e-08
 -7.788740e-08
 -8.972755e-08
 -6.970311e-08
 -3.823180e-08
 -2.172802e-08
 -3.107651e-08
 -4.477089e-08
 -3.485315e-08
 4.860893e-09
 8.022319e-08
 2.551005e-07
 8.855323e-07
 -5.955503e-08
 -1.439600e-06
 -4.601395e-07
 -4.130623e-07
 -3.564009e-07
 1.863709e-07
 1.017917e-06
 1.248724e-06
 9.544114e-07
 3.089285e-07
 -5.266597e-07
 -8.098951e-07
 -6.141866e-07
 -3.645880e-07
 -1.661319e-07
 0.000000e+00
 0.000000e+00
 9.257391e-09
 1.891942e-08
 2.936747e-08
 4.092230e-08
 5.378112e-08
 6.792409e-08
 8.300273e-08
 9.826370e-08
 1.125958e-07
 1.247227e-07
 1.334337e-07
 1.378130e-07
 1.376488e-07
 1.340827e-07
 1.300223e-07
 1.294817e-07
 1.353948e-07
 1.460972e-07
 1.512628e-07
 1.327497e-07
 8.155061e-08
 1.717443e-08
 -3.171206e-08
 -5.550022e-08
 -5.840585e-08
 -4.754698e-08
 -2.985086e-08
 -1.012902e-08
 1.069498e-08
 3.602680e-08
 7.271617e-08
 1.320620e-07
 2.270790e-07
 2.700470e-07
 -1.690113e-09
 -3.331746e-07
 -3.901808e-07
 -4.764551e-07
 -1.538890e-06
 -1.034517e-06
 1.405056e-06
 1.699526e-06
 7.403057e-07
 2.199543e-07
 -1.913178e-07
 -3.914056e-07
 -3.773415e-07
 -2.646741e-07
 -1.316609e-07
 0.000000e+00
 0.000000e+00
 5.378633e-09
 1.097493e-08
 1.707535e-08
 2.414299e-08
 3.297787e-08
 4.481952e-08
 6.100941e-08
 8.178138e-08
 1.047770e-07
 1.253307e-07
 1.392212e-07
 1.451241e-07
 1.445028e-07
 1.401325e-07
 1.349538e-07
 1.312949e-07
 1.298570e-07
 1.284154e-07
 1.212353e-07
 1.014243e-07
 6.713224e-08
 2.553274e-08
 -1.288330e-08
 -4.231868e-08
 -6.087402e-08
 -6.334175e-08
 -3.931346e-08
 1.050269e-08
 6.215081e-08
 9.621577e-08
 1.192001e-07
 1.441387e-07
 1.654503e-07
 1.410470e-07
 3.207223e-08
 -9.167304e-08
 -1.499600e-07
 -1.803635e-07
 -1.392826e-07
 1.765588e-05
 1.795375e-05
 4.634167e-07
 3.011035e-07
 8.506181e-08
 -1.016821e-07
 -2.112778e-07
 -2.262546e-07
 -1.749857e-07
 -9.260507e-08
 0.000000e+00
 0.000000e+00
 1.292538e-09
 2.553802e-09
 3.872329e-09
 5.680709e-09
 9.213921e-09
 1.720013e-08
 3.394672e-08
 6.259888e-08
 9.948631e-08
 1.331788e-07
 1.534994e-07
 1.591583e-07
 1.551201e-07
 1.468991e-07
 1.381064e-07
 1.303871e-07
 1.236561e-07
 1.161298e-07
 1.047158e-07
 8.645656e-08
 6.066132e-08
 2.958822e-08
 -3.891341e-09
 -3.937115e-08
 -7.784952e-08
 -1.073989e-07
 -8.019540e-08
 3.034699e-08
 1.371838e-07
 1.683824e-07
 1.606804e-07
 1.525259e-07
 1.453451e-07
 1.239320e-07
 8.419998e-08
 5.310492e-08
 6.604019e-08
 1.420325e-07
 -8.291101e-08
 1.001752e-06
 -2.924441e-07
 -1.186002e-06
 -1.581084e-07
 -6.744561e-08
 -9.736354e-08
 -1.351566e-07
 -1.415372e-07
 -1.132875e-07
 -6.188838e-08
 0.000000e+00
 0.000000e+00
 -2.745008e-09
 -5.873884e-09
 -9.696579e-09
 -1.425059e-08
 -1.865706e-08
 -1.924011e-08
 -6.287838e-09
 3.349119e-08
 9.765664e-08
 1.562776e-07
 1.835442e-07
 1.828464e-07
 1.695368e-07
 1.539111e-07
 1.399075e-07
 1.281992e-07
 1.179982e-07
 1.077243e-07
 9.546018e-08
 7.962399e-08
 5.960191e-08
 3.552966e-08
 6.583953e-09
 -3.224144e-08
 -9.504570e-08
 -2.083296e-07
 -2.338789e-07
 5.823771e-08
 3.150660e-07
 2.749355e-07
 1.951687e-07
 1.572101e-07
 1.412012e-07
 1.320681e-07
 1.292750e-07
 1.490212e-07
 2.203579e-07
 3.816778e-07
 5.050941e-07
 1.777953e-05
 -1.914458e-07
 -3.932777e-07
 -2.617959e-07
 -1.274753e-07
 -9.499603e-08
 -9.645792e-08
 -9.365403e-08
 -7.461047e-08
 -4.115025e-08
 0.000000e+00
 0.000000e+00
 -6.389070e-09
 -1.357231e-08
 -2.241310e-08
 -3.393279e-08
 -4.926216e-08
 -6.793346e-08
 -7.598770e-08
 -2.646272e-08
 1.023586e-07
 2.173631e-07
 2.432374e-07
 2.177403e-07
 1.851528e-07
 1.588172e-07
 1.392010e-07
 1.243752e-07
 1.123477e-07
 1.013627e-07
 8.996253e-08
 7.714802e-08
 6.247347e-08
 4.569170e-08
 2.548671e-08
 -3.764092e-09
 -6.218661e-08
 -2.279512e-07
 -1.289262e-06
 3.895577e-08
 9.617352e-07
 3.352667e-07
 1.835748e-07
 1.415953e-07
 1.326386e-07
 1.369234e-07
 1.538522e-07
 1.949734e-07
 2.854870e-07
 4.881425e-07
 1.109098e-06
 5.368823e-08
 -1.452731e-06
 -4.293488e-07
 -1.879007e-07
 -8.607288e-08
 -6.489197e-08
 -6.649049e-08
 -6.417702e-08
 -5.101577e-08
 -2.817659e-08
 0.000000e+00
 0.000000e+00
 -9.249636e-09
 -1.963971e-08
 -3.249182e-08
 -4.972390e-08
 -7.521129e-08
 -1.190901e-07
 -2.041927e-07
 -1.954079e-07
 1.257531e-07
 3.955696e-07
 3.505353e-07
 2.533228e-07
 1.929523e-07
 1.567891e-07
 1.337319e-07
 1.177938e-07
 1.056995e-07
 9.549369e-08
 8.598393e-08
 7.658931e-08
 6.731707e-08
 5.869166e-08
 5.160500e-08
 4.728806e-08
 4.818800e-08
 6.384260e-08
 3.878958e-08
 1.750401e-05
 5.358138e-08
 9.270527e-08
 8.971507e-08
 9.966199e-08
 1.134793e-07
 1.310342e-07
 1.561397e-07
 1.956750e-07
 2.575534e-07
 3.392574e-07
 3.177622e-07
 -1.105827e-07
 -5.255919e-07
 -2.928316e-07
 3.215432e-08
 3.582389e-08
 -1.904376e-08
 -4.331754e-08
 -4.673817e-08
 -3.756061e-08
 -2.067414e-08
 0.000000e+00
 0.000000e+00
 -1.099514e-08
 -2.332474e-08
 -3.844290e-08
 -5.812820e-08
 -8.530338e-08
 -1.307131e-07
 -2.590473e-07
 -1.260613e-06
 1.199106e-07
 1.061718e-06
 4.244066e-07
 2.477386e-07
 1.777931e-07
 1.425182e-07
 1.215563e-07
 1.075666e-07
 9.727930e-08
 8.902740e-08
 8.199016e-08
 7.599763e-08
 7.157349e-08
 7.019243e-08
 7.507469e-08
 9.381547e-08
 1.480089e-07
 3.138479e-07
 9.554613e-07
 4.805731e-08
 -1.265231e-06
 -1.902034e-07
 -1.274568e-08
 5.485738e-08
 9.118381e-08
 1.181360e-07
 1.442950e-07
 1.733363e-07
 2.018549e-07
 2.055183e-07
 1.128023e-07
 -1.944069e-07
 -1.419964e-06
 -1.706663e-07
 7.444411e-07
 1.310436e-07
 -7.495667e-09
 -3.983025e-08
 -4.137544e-08
 -3.170435e-08
 -1.695349e-08
 0.000000e+00
 0.000000e+00
 -1.142441e-08
 -2.426793e-08
 -3.994610e-08
 -5.966309e-08
 -8.238166e-08
 -9.185357e-08
 -3.129796e-08
 6.600317e-08
 1.763832e-05
 2.046669e-07
 2.082080e-07
 1.617732e-07
 1.338932e-07
 1.155679e-07
 1.029604e-07
 9.386745e-08
 8.695199e-08
 8.144930e-08
 7.706266e-08
 7.398450e-08
 7.303902e-08
 7.601970e-08
 8.644925e-08
 1.112459e-07
 1.635970e-07
 2.600088e-07
 3.170967e-07
 7.686430e-08
 -1.994137e-07
 -1.596259e-07
 -3.502715e-08
 3.497745e-08
 7.667010e-08
 1.054312e-07
 1.286550e-07
 1.486905e-07
 1.623171e-07
 1.585740e-07
 1.227791e-07
 6.218740e-08
 -4.752630e-08
 1.736138e-05
 -1.111126e-07
 -7.455589e-08
 -7.397961e-08
 -6.062372e-08
 -4.559406e-08
 -3.053967e-08
 -1.536386e-08
 0.000000e+00
 0.000000e+00
 -1.043594e-08
 -2.236736e-08
 -3.723428e-08
 -5.666895e-08
 -8.378152e-08
 -1.197168e-07
 4.749857e-08
 1.001347e-06
 3.540132e-07
 -1.014440e-06
 -4.688105e-08
 5.994704e-08
 8.099740e-08
 8.313468e-08
 8.098491e-08
 7.808153e-08
 7.528661e-08
 7.283362e-08
 7.092723e-08
 6.998981e-08
 7.084271e-08
 7.491889e-08
 8.450483e-08
 1.026779e-07
 1.311703e-07
 1.598630e-07
 1.479170e-07
 5.916000e-08
 -3.379565e-08
 -4.480022e-08
 -2.968303e-09
 4.105304e-08
 7.386577e-08
 9.752255e-08
 1.153450e-07
 1.290590e-07
 1.388445e-07
 1.465726e-07
 1.692295e-07
 2.867261e-07
 8.780592e-07
 -6.547720e-08
 -1.395896e-06
 -3.252770e-07
 -1.481985e-07
 -8.203341e-08
 -4.965547e-08
 -2.953598e-08
 -1.401604e-08
 0.000000e+00
 0.000000e+00
 -7.938235e-09
 -1.753097e-08
 -3.016185e-08
 -4.664664e-08
 -7.158726e-08
 -1.560487e-07
 -1.072327e-06
 3.531859e-07
 1.042768e-06
 1.177660e-07
 -2.968636e-08
 1.539095e-08
 4.140412e-08
 5.369969e-08
 5.943646e-08
 6.211106e-08
 6.328176e-08
 6.370882e-08
 6.388816e-08
 6.430489e-08
 6.556896e-08
 6.847845e-08
 7.393785e-08
 8.241722e-08
 9.222011e-08
 9.630275e-08
 8.275050e-08
 4.968304e-08
 2.009192e-08
 1.701348e-08
 3.585022e-08
 5.996536e-08
 8.020662e-08
 9.513203e-08
 1.058232e-07
 1.134074e-07
 1.192349e-07
 1.274844e-07
 1.505916e-07
 2.096662e-07
 2.321074e-07
 -2.869829e-08
 -3.090413e-07
 -2.657413e-07
 -1.405057e-07
 -7.586639e-08
 -4.321253e-08
 -2.457570e-08
 -1.140154e-08
 0.000000e+00
 0.000000e+00
 -3.751161e-09
 -9.525036e-09
 -1.922809e-08
 -3.211568e-08
 -3.055397e-08
 4.487939e-08
 1.542050e-07
 1.769825e-05
 1.612039e-07
 5.885613e-08
 -9.671690e-09
 -4.507398e-09
 1.474464e-08
 3.017735e-08
 4.065632e-08
 4.752776e-08
 5.198338e-08
 5.483275e-08
 5.663407e-08
 5.780703e-08
 5.867801e-08
 5.944723e-08
 6.005179e-08
 5.990387e-08
 5.765865e-08
 5.176176e-08
 4.292763e-08
 3.690358e-08
 4.098781e-08
 5.502024e-08
 7.139720e-08
 8.410028e-08
 9.217196e-08
 9.691599e-08
 9.938449e-08
 9.989028e-08
 9.854503e-08
 9.605037e-08
 9.327104e-08
 8.387774e-08
 3.955390e-08
 -5.730250e-08
 -1.301620e-07
 -1.174457e-07
 -7.149139e-08
 -4.016801e-08
 -2.430363e-08
 -1.490844e-08
 -7.304854e-09
 0.000000e+00
 0.000000e+00
 2.434491e-09
 2.622867e-09
 -3.285735e-09
 -2.265380e-08
 -6.094887e-08
 9.335943e-08
 1.025271e-06
 3.426605e-07
 -1.075811e-06
 -1.524390e-07
 -6.091826e-08
 -2.912822e-08
 -6.290145e-09
 1.179460e-08
 2.541570e-08
 3.529187e-08
 4.225078e-08
 4.698360e-08
 4.999484e-08
 5.159295e-08
 5.184895e-08
 5.049515e-08
 4.677518e-08
 3.938843e-08
 2.707993e-08
 1.120196e-08
 8.207566e-10
 1.241843e-08
 5.034082e-08
 9.121504e-08
 1.116676e-07
 1.131967e-07
 1.073563e-07
 1.008283e-07
 9.486654e-08
 8.833820e-08
 7.918047e-08
 6.424656e-08
 3.781245e-08
 -9.304878e-09
 -7.570183e-08
 -1.125083e-07
 -6.615577e-08
 3.489156e-09
 2.241066e-08
 1.112598e-08
 8.899455e-11
 -3.956461e-09
 -3.081247e-09
 0.000000e+00
 0.000000e+00
 1.062103e-08
 2.024392e-08
 2.534502e-08
 1.133809e-08
 -8.859007e-08
 -1.049326e-06
 3.259579e-07
 9.802200e-07
 3.347198e-08
 -1.264564e-07
 -8.313453e-08
 -4.876382e-08
 -2.258432e-08
 -2.015825e-09
 1.392706e-08
 2.594530e-08
 3.471248e-08
 4.082441e-08
 4.473097e-08
 4.666635e-08
 4.654729e-08
 4.380475e-08
 3.712148e-08
 2.412040e-08
 1.419221e-09
 -3.286052e-08
 -6.517410e-08
 -4.488535e-08
 5.690810e-08
 1.536604e-07
 1.722511e-07
 1.483321e-07
 1.222874e-07
 1.038412e-07
 9.080157e-08
 7.927300e-08
 6.519173e-08
 4.310974e-08
 3.311189e-09
 -7.288455e-08
 -2.146489e-07
 -2.800947e-07
 -2.788904e-08
 2.000080e-07
 1.440568e-07
 5.709693e-08
 1.654354e-08
 2.121682e-09
 -9.482280e-10
 0.000000e+00
 0.000000e+00
 1.949579e-08
 4.110086e-08
 6.747477e-08
 1.027462e-07
 1.561324e-07
 1.592965e-07
 1.759960e-05
 3.409473e-08
 -5.607229e-08
 -1.090663e-07
 -9.165515e-08
 -6.088265e-08
 -3.349395e-08
 -1.121517e-08
 6.363210e-09
 1.983640e-08
 2.980508e-08
 3.683550e-08
 4.138722e-08
 4.371603e-08
 4.374696e-08
 4.087367e-08
 3.357361e-08
 1.857652e-08
 -1.104331e-08
 -6.996850e-08
 -1.839820e-07
 -2.135054e-07
 7.252544e-08
 3.214685e-07
 2.713041e-07
 1.792836e-07
 1.282400e-07
 1.013600e-07
 8.525286e-08
 7.257053e-08
 5.855201e-08
 3.821838e-08
 2.778407e-09
 -7.020046e-08
 -2.592076e-07
 -1.349410e-06
 -4.967044e-08
 8.509666e-07
 2.110823e-07
 5.316208e-08
 8.803220e-09
 -1.904077e-09
 -2.316440e-09
 0.000000e+00
 0.000000e+00
 2.634655e-08
 5.739814e-08
 1.012541e-07
 1.787305e-07
 3.622116e-07
 1.005914e-06
 7.038266e-08
 -1.303643e-06
 -2.950220e-07
 -1.588134e-07
 -1.046529e-07
 -6.812365e-08
 -3.913491e-08
 -1.570761e-08
 2.905415e-09
 1.722750e-08
 2.781875e-08
 3.529195e-08
 4.021307e-08
 4.297953e-08
 4.370899e-08
 4.210463e-08
 3.717592e-08
 2.645205e-08
 3.402731e-09
 -5.229798e-08
 -2.182826e-07
 -1.281874e-06
 4.263501e-08
 9.602492e-07
 3.266192e-07
 1.653506e-07
 1.116077e-07
 8.912202e-08
 7.667817e-08
 6.717993e-08
 5.770788e-08
 4.672351e-08
 3.350221e-08
 1.929416e-08
 1.390477e-08
 -3.571587e-08
 1.740585e-05
 -6.236037e-08
 -3.226227e-08
 -3.679166e-08
 -2.585946e-08
 -1.413091e-08
 -5.727587e-09
 0.000000e+00
 0.000000e+00
 2.894371e-08
 6.247962e-08
 1.073239e-07
 1.750466e-07
 2.786459e-07
 3.294516e-07
 6.519282e-08
 -2.501299e-07
 -2.522197e-07
 -1.590118e-07