<VTKFile type="UnstructuredGrid"  version="0.1"   >
<UnstructuredGrid>  
<Piece  NumberOfPoints="     2601"  NumberOfCells="     5000">  
<Points>  
<DataArray  type="Float64"  NumberOfComponents="3"  format="ascii">  
 0.000000 0.000000 0.000000 
 0.020000 0.000000 0.000000 
 0.040000 0.000000 0.000000 
 0.060000 0.000000 0.000000 
 0.080000 0.000000 0.000000 
 0.100000 0.000000 0.000000 
 0.120000 0.000000 0.000000 
 0.140000 0.000000 0.000000 
 0.160000 0.000000 0.000000 
 0.180000 0.000000 0.000000 
 0.200000 0.000000 0.000000 
 0.220000 0.000000 0.000000 
 0.240000 0.000000 0.000000 
 0.260000 0.000000 0.000000 
 0.280000 0.000000 0.000000 
 0.300000 0.000000 0.000000 
 0.320000 0.000000 0.000000 
 0.340000 0.000000 0.000000 
 0.360000 0.000000 0.000000 
 0.380000 0.000000 0.000000 
 0.400000 0.000000 0.000000 
 0.420000 0.000000 0.000000 
 0.440000 0.000000 0.000000 
 0.460000 0.000000 0.000000 
 0.480000 0.000000 0.000000 
 0.500000 0.000000 0.000000 
 0.520000 0.000000 0.000000 
 0.540000 0.000000 0.000000 
 0.560000 0.000000 0.000000 
 0.580000 0.000000 0.000000 
 0.600000 0.000000 0.000000 
 0.620000 0.000000 0.000000 
 0.640000 0.000000 0.000000 
 0.660000 0.000000 0.000000 
 0.680000 0.000000 0.000000 
 0.700000 0.000000 0.000000 
 0.720000 0.000000 0.000000 
 0.740000 0.000000 0.000000 
 0.760000 0.000000 0.000000 
 0.780000 0.000000 0.000000 
 0.800000 0.000000 0.000000 
 0.820000 0.000000 0.000000 
 0.840000 0.000000 0.000000 
 0.860000 0.000000 0.000000 
 0.880000 0.000000 0.000000 
 0.900000 0.000000 0.000000 
 0.920000 0.000000 0.000000 
 0.940000 0.000000 0.000000 
 0.960000 0.000000 0.000000 
 0.980000 0.000000 0.000000 
 1.000000 0.000000 0.000000 
 0.000000 0.020000 0.000000 
 0.020000 0.020000 0.000000 
 0.040000 0.020000 0.000000 
 0.060000 0.020000 0.000000 
 0.080000 0.020000 0.000000 
 0.100000 0.020000 0.000000 
 0.120000 0.020000 0.000000 
 0.140000 0.020000 0.000000 
 0.160000 0.020000 0.000000 
 0.180000 0.020000 0.000000 
 0.200000 0.020000 0.000000 
 0.220000 0.020000 0.000000 
 0.240000 0.020000 0.000000 
 0.260000 0.020000 0.000000 
 0.280000 0.020000 0.000000 
 0.300000 0.020000 0.000000 
 0.320000 0.020000 0.000000 
 0.340000 0.020000 0.000000 
 0.360000 0.020000 0.000000 
 0.380000 0.020000 0.000000 
 0.400000 0.020000 0.000000 
 0.420000 0.020000 0.000000 
 0.440000 0.020000 0.000000 
 0.460000 0.020000 0.000000 
 0.480000 0.020000 0.000000 
 0.500000 0.020000 0.000000 
 0.520000 0.020000 0.000000 
 0.540000 0.020000 0.000000 
 0.560000 0.020000 0.000000 
 0.580000 0.020000 0.000000 
 0.600000 0.020000 0.000000 
 0.620000 0.020000 0.000000 
 0.640000 0.020000 0.000000 
 0.660000 0.020000 0.000000 
 0.680000 0.020000 0.000000 
 0.700000 0.020000 0.000000 
 0.720000 0.020000 0.000000 
 0.740000 0.020000 0.000000 
 0.760000 0.020000 0.000000 
 0.780000 0.020000 0.000000 
 0.800000 0.020000 0.000000 
 0.820000 0.020000 0.000000 
 0.840000 0.020000 0.000000 
 0.860000 0.020000 0.000000 
 0.880000 0.020000 0.000000 
 0.900000 0.020000 0.000000 
 0.920000 0.020000 0.000000 
 0.940000 0.020000 0.000000 
 0.960000 0.020000 0.000000 
 0.980000 0.020000 0.000000 
 1.000000 0.020000 0.000000 
 0.000000 0.040000 0.000000 
 0.020000 0.040000 0.000000 
 0.040000 0.040000 0.000000 
 0.060000 0.040000 0.000000 
 0.080000 0.040000 0.000000 
 0.100000 0.040000 0.000000 
 0.120000 0.040000 0.000000 
 0.140000 0.040000 0.000000 
 0.160000 0.040000 0.000000 
 0.180000 0.040000 0.000000 
 0.200000 0.040000 0.000000 
 0.220000 0.040000 0.000000 
 0.240000 0.040000 0.000000 
 0.260000 0.040000 0.000000 
 0.280000 0.040000 0.000000 
 0.300000 0.040000 0.000000 
 0.320000 0.040000 0.000000 
 0.340000 0.040000 0.000000 
 0.360000 0.040000 0.000000 
 0.380000 0.040000 0.000000 
 0.400000 0.040000 0.000000 
 0.420000 0.040000 0.000000 
 0.440000 0.040000 0.000000 
 0.460000 0.040000 0.000000 
 0.480000 0.040000 0.000000 
 0.500000 0.040000 0.000000 
 0.520000 0.040000 0.000000 
 0.540000 0.040000 0.000000 
 0.560000 0.040000 0.000000 
 0.580000 0.040000 0.000000 
 0.600000 0.040000 0.000000 
 0.620000 0.040000 0.000000 
 0.640000 0.040000 0.000000 
 0.660000 0.040000 0.000000 
 0.680000 0.040000 0.000000 
 0.700000 0.040000 0.000000 
 0.720000 0.040000 0.000000 
 0.740000 0.040000 0.000000 
 0.760000 0.040000 0.000000 
 0.780000 0.040000 0.000000 
 0.800000 0.040000 0.000000 
 0.820000 0.040000 0.000000 
 0.840000 0.040000 0.000000 
 0.860000 0.040000 0.000000 
 0.880000 0.040000 0.000000 
 0.900000 0.040000 0.000000 
 0.920000 0.040000 0.000000 
 0.940000 0.040000 0.000000 
 0.960000 0.040000 0.000000 
 0.980000 0.040000 0.000000 
 1.000000 0.040000 0.000000 
 0.000000 0.060000 0.000000 
 0.020000 0.060000 0.000000 
 0.040000 0.060000 0.000000 
 0.060000 0.060000 0.000000 
 0.080000 0.060000 0.000000 
 0.100000 0.060000 0.000000 
 0.120000 0.060000 0.000000 
 0.140000 0.060000 0.000000 
 0.160000 0.060000 0.000000 
 0.180000 0.060000 0.000000 
 0.200000 0.060000 0.000000 
 0.220000 0.060000 0.000000 
 0.240000 0.060000 0.000000 
 0.260000 0.060000 0.000000 
 0.280000 0.060000 0.000000 
 0.300000 0.060000 0.000000 
 0.320000 0.060000 0.000000 
 0.340000 0.060000 0.000000 
 0.360000 0.060000 0.000000 
 0.380000 0.060000 0.000000 
 0.400000 0.060000 0.000000 
 0.420000 0.060000 0.000000 
 0.440000 0.060000 0.000000 
 0.460000 0.060000 0.000000 
 0.480000 0.060000 0.000000 
 0.500000 0.060000 0.000000 
 0.520000 0.060000 0.000000 
 0.540000 0.060000 0.000000 
 0.560000 0.060000 0.000000 
 0.580000 0.060000 0.000000 
 0.600000 0.060000 0.000000 
 0.620000 0.060000 0.000000 
 0.640000 0.060000 0.000000 
 0.660000 0.060000 0.000000 
 0.680000 0.060000 0.000000 
 0.700000 0.060000 0.000000 
 0.720000 0.060000 0.000000 
 0.740000 0.060000 0.000000 
 0.760000 0.060000 0.000000 
 0.780000 0.060000 0.000000 
 0.800000 0.060000 0.000000 
 0.820000 0.060000 0.000000 
 0.840000 0.060000 0.000000 
 0.860000 0.060000 0.000000 
 0.880000 0.060000 0.000000 
 0.900000 0.060000 0.000000 
 0.920000 0.060000 0.000000 
 0.940000 0.060000 0.000000 
 0.960000 0.060000 0.000000 
 0.980000 0.060000 0.000000 
 1.000000 0.060000 0.000000 
 0.000000 0.080000 0.000000 
 0.020000 0.080000 0.000000 
 0.040000 0.080000 0.000000 
 0.060000 0.080000 0.000000 
 0.080000 0.080000 0.000000 
 0.100000 0.080000 0.000000 
 0.120000 0.080000 0.000000 
 0.140000 0.080000 0.000000 
 0.160000 0.080000 0.000000 
 0.180000 0.080000 0.000000 
 0.200000 0.080000 0.000000 
 0.220000 0.080000 0.000000 
 0.240000 0.080000 0.000000 
 0.260000 0.080000 0.000000 
 0.280000 0.080000 0.000000 
 0.300000 0.080000 0.000000 
 0.320000 0.080000 0.000000 
 0.340000 0.080000 0.000000 
 0.360000 0.080000 0.000000 
 0.380000 0.080000 0.000000 
 0.400000 0.080000 0.000000 
 0.420000 0.080000 0.000000 
 0.440000 0.080000 0.000000 
 0.460000 0.080000 0.000000 
 0.480000 0.080000 0.000000 
 0.500000 0.080000 0.000000 
 0.520000 0.080000 0.000000 
 0.540000 0.080000 0.000000 
 0.560000 0.080000 0.000000 
 0.580000 0.080000 0.000000 
 0.600000 0.080000 0.000000 
 0.620000 0.080000 0.000000 
 0.640000 0.080000 0.000000 
 0.660000 0.080000 0.000000 
 0.680000 0.080000 0.000000 
 0.700000 0.080000 0.000000 
 0.720000 0.080000 0.000000 
 0.740000 0.080000 0.000000 
 0.760000 0.080000 0.000000 
 0.780000 0.080000 0.000000 
 0.800000 0.080000 0.000000 
 0.820000 0.080000 0.000000 
 0.840000 0.080000 0.000000 
 0.860000 0.080000 0.000000 
 0.880000 0.080000 0.000000 
 0.900000 0.080000 0.000000 
 0.920000 0.080000 0.000000 
 0.940000 0.080000 0.000000 
 0.960000 0.080000 0.000000 
 0.980000 0.080000 0.000000 
 1.000000 0.080000 0.000000 
 0.000000 0.100000 0.000000 
 0.020000 0.100000 0.000000 
 0.040000 0.100000 0.000000 
 0.060000 0.100000 0.000000 
 0.080000 0.100000 0.000000 
 0.100000 0.100000 0.000000 
 0.120000 0.100000 0.000000 
 0.140000 0.100000 0.000000 
 0.160000 0.100000 0.000000 
 0.180000 0.100000 0.000000 
 0.200000 0.100000 0.000000 
 0.220000 0.100000 0.000000 
 0.240000 0.100000 0.000000 
 0.260000 0.100000 0.000000 
 0.280000 0.100000 0.000000 
 0.300000 0.100000 0.000000 
 0.320000 0.100000 0.000000 
 0.340000 0.100000 0.000000 
 0.360000 0.100000 0.000000 
 0.380000 0.100000 0.000000 
 0.400000 0.100000 0.000000 
 0.420000 0.100000 0.000000 
 0.440000 0.100000 0.000000 
 0.460000 0.100000 0.000000 
 0.480000 0.100000 0.000000 
 0.500000 0.100000 0.000000 
 0.520000 0.100000 0.000000 
 0.540000 0.100000 0.000000 
 0.560000 0.100000 0.000000 
 0.580000 0.100000 0.000000 
 0.600000 0.100000 0.000000 
 0.620000 0.100000 0.000000 
 0.640000 0.100000 0.000000 
 0.660000 0.100000 0.000000 
 0.680000 0.100000 0.000000 
 0.700000 0.100000 0.000000 
 0.720000 0.100000 0.000000 
 0.740000 0.100000 0.000000 
 0.760000 0.100000 0.000000 
 0.780000 0.100000 0.000000 
 0.800000 0.100000 0.000000 
 0.820000 0.100000 0.000000 
 0.840000 0.100000 0.000000 
 0.860000 0.100000 0.000000 
 0.880000 0.100000 0.000000 
 0.900000 0.100000 0.000000 
 0.920000 0.100000 0.000000 
 0.940000 0.100000 0.000000 
 0.960000 0.100000 0.000000 
 0.980000 0.100000 0.000000 
 1.000000 0.100000 0.000000 
 0.000000 0.120000 0.000000 
 0.020000 0.120000 0.000000 
 0.040000 0.120000 0.000000 
 0.060000 0.120000 0.000000 
 0.080000 0.120000 0.000000 
 0.100000 0.120000 0.000000 
 0.120000 0.120000 0.000000 
 0.140000 0.120000 0.000000 
 0.160000 0.120000 0.000000 
 0.180000 0.120000 0.000000 
 0.200000 0.120000 0.000000 
 0.220000 0.120000 0.000000 
 0.240000 0.120000 0.000000 
 0.260000 0.120000 0.000000 
 0.280000 0.120000 0.000000 
 0.300000 0.120000 0.000000 
 0.320000 0.120000 0.000000 
 0.340000 0.120000 0.000000 
 0.360000 0.120000 0.000000 
 0.380000 0.120000 0.000000 
 0.400000 0.120000 0.000000 
 0.420000 0.120000 0.000000 
 0.440000 0.120000 0.000000 
 0.460000 0.120000 0.000000 
 0.480000 0.120000 0.000000 
 0.500000 0.120000 0.000000 
 0.520000 0.120000 0.000000 
 0.540000 0.120000 0.000000 
 0.560000 0.120000 0.000000 
 0.580000 0.120000 0.000000 
 0.600000 0.120000 0.000000 
[...]
<PointData  Scalars="U"> 
<DataArray  type="Float64"  Name="U"  format="ascii"> 
 0.000000e+00
 0.000000e+00
 0.000000e+00
 0.000000e+00
 0.000000e+00
 0.000000e+00
 0.000000e+00
 0.000000e+00
 0.000000e+00
 0.000000e+00
 0.000000e+00
 0.000000e+00
 0.000000e+00
 0.000000e+00
 0.000000e+00
 0.000000e+00
 0.000000e+00
 0.000000e+00
 0.000000e+00
 0.000000e+00
 0.000000e+00
 0.000000e+00
 0.000000e+00
 0.000000e+00
 0.000000e+00
 0.000000e+00
 0.000000e+00
 0.000000e+00
 0.000000e+00
 0.000000e+00
 0.000000e+00
 0.000000e+00
 0.000000e+00
 0.000000e+00
 0.000000e+00
 0.000000e+00
 0.000000e+00
 0.000000e+00
 0.000000e+00
 0.000000e+00
 0.000000e+00
 0.000000e+00
 0.000000e+00
 0.000000e+00
 0.000000e+00
 0.000000e+00
 0.000000e+00
 0.000000e+00
 0.000000e+00
 0.000000e+00
 0.000000e+00
 0.000000e+00
 -1.700357e-09
 -4.002620e-09
 -7.356554e-09
 -1.157792e-08
 -1.488522e-08
 -1.323748e-08
 -2.407181e-09
 1.648079e-08
 3.463974e-08
 4.045547e-08
 1.396305e-08
 -1.326511e-07
 -1.233345e-06
 -2.804629e-08
 7.773806e-07
 1.134576e-07
 -3.125554e-08
 -6.284035e-08
 -6.994970e-08
 -7.626995e-08
 -9.218163e-08
 -1.289028e-07
 -2.089482e-07
 -3.908186e-07
 -8.594343e-07
 -2.781148e-06
 -3.544558e-06
 -2.836252e-06
 -9.487602e-07
 -5.282271e-07
 -4.720697e-07
 -6.482575e-07
 -7.524168e-07
 -2.517769e-07
 3.740299e-07
 3.323506e-07
 3.629285e-08
 9.825261e-08
 2.156983e-07
 1.070749e-07
 4.477232e-09
 -3.405662e-08
 -3.940769e-08
 -2.998751e-08
 -1.487568e-08
 -3.826061e-10
 8.770094e-09
 1.073405e-08
 6.404055e-09
 0.000000e+00
 0.000000e+00
 -2.782934e-09
 -6.864918e-09
 -1.358214e-08
 -2.361545e-08
 -3.454728e-08
 -3.663827e-08
 -1.447958e-08
 3.343974e-08
 8.140616e-08
 1.059853e-07
 1.093507e-07
 1.046556e-07
 2.986656e-08
 1.741843e-05
 -1.073300e-07
 -1.164780e-07
 -1.421070e-07
 -1.426734e-07
 -1.391854e-07
 -1.431379e-07
 -1.651367e-07
 -2.192570e-07
 -3.313720e-07
 -5.553345e-07
 -9.901310e-07
 -1.651630e-06
 1.542300e-05
 -1.795268e-06
 -1.160357e-06
 -7.472604e-07
 -7.318239e-07
 -1.060900e-06
 -3.091778e-06
 -1.353518e-06
 1.650526e-06
 1.076384e-06
 -9.503408e-07
 6.175631e-08
 8.270699e-07
 1.226196e-07
 -5.675289e-08
 -9.813632e-08
 -9.211244e-08
 -6.539124e-08
 -2.893936e-08
 5.115649e-09
 2.524696e-08
 2.789262e-08
 1.716685e-08
 0.000000e+00
 0.000000e+00
 -2.591221e-09
 -7.030075e-09
 -1.605916e-08
 -3.344792e-08
 -6.138695e-08
 -8.657875e-08
 -5.871372e-08
 5.102158e-08
 1.575601e-07
 1.936658e-07
 2.140316e-07
 3.310006e-07
 9.148625e-07
 -5.805983e-08
 -1.435975e-06
 -4.140567e-07
 -2.728986e-07
 -2.254790e-07
 -2.009169e-07
 -1.924069e-07
 -2.077145e-07
 -2.559894e-07
 -3.506918e-07
 -5.148028e-07
 -7.791188e-07
 -1.567114e-06
 -1.521260e-06
 -1.971254e-06
 -1.044679e-06
 -5.608632e-07
 -5.546152e-07
 -1.559749e-06
 -3.124673e-07
 3.537476e-05
 1.722693e-05
 -7.343134e-08
 5.401414e-08
 1.738889e-05
 -1.930329e-07
 -2.143176e-07
 -2.270485e-07
 -2.014063e-07
 -1.634345e-07
 -1.113195e-07
 -4.067178e-08
 2.619462e-08
 6.061188e-08
 5.883224e-08
 3.414602e-08
 0.000000e+00
 0.000000e+00
 -7.193066e-10
 -2.830235e-09
 -1.013499e-08
 -3.109202e-08
 -8.207975e-08
 -1.897785e-07
 -2.143986e-07
 7.644402e-08
 3.329831e-07
 2.990267e-07
 2.431607e-07
 2.622527e-07
 2.544249e-07
 -5.035193e-08
 -3.926951e-07
 -4.158735e-07
 -3.407673e-07
 -2.933076e-07
 -2.483343e-07
 -2.175959e-07
 -2.180219e-07
 -2.480792e-07
 -3.022873e-07
 -3.733601e-07
 -4.382448e-07
 -6.275489e-07
 1.631467e-05
 -2.481298e-06
 -9.656965e-07
 2.629289e-07
 -2.488543e-08
 2.955463e-07
 1.918325e-05
 4.102591e-07
 -4.131687e-06
 -1.875258e-06
 1.034608e-06
 -2.815018e-07
 -1.698479e-06
 -6.428536e-07
 -4.302627e-07
 -3.116410e-07
 -2.479572e-07
 -1.823389e-07
 -5.003543e-08
 8.557758e-08
 1.350868e-07
 1.122091e-07
 5.970556e-08
 0.000000e+00
 0.000000e+00
 2.129679e-09
 5.811052e-09
 8.209260e-09
 -9.441858e-10
 -4.617620e-08
 -2.068895e-07
 -1.269506e-06
 5.402639e-08
 9.716773e-07
 3.421150e-07
 1.895669e-07
 1.369212e-07
 6.456426e-08
 -8.667521e-08
 -2.518021e-07
 -3.457665e-07
 -3.836510e-07
 -3.671215e-07
 -2.818771e-07
 -2.068880e-07
 -1.988049e-07
 -2.163751e-07
 -2.336789e-07
 -2.353388e-07
 -1.410176e-07
 4.032072e-07
 -6.263090e-07
 -2.045846e-06
 1.657215e-05
 -4.723712e-07
 4.765626e-08
 1.055876e-06
 4.456992e-07
 -1.228602e-06
 -9.458615e-07
 1.652928e-05
 -6.086253e-07
 -6.404361e-07
 -8.873906e-07
 -8.179265e-07
 -5.723252e-07
 -3.561300e-07
 -3.269867e-07
 -3.526840e-07
 -6.770027e-08
 2.576338e-07
 2.837925e-07
 1.903117e-07
 8.988667e-08
 0.000000e+00
 0.000000e+00
 2.634739e-09
 1.451787e-08
 3.633431e-08
 5.932484e-08
 7.593319e-08
 9.394292e-08
 6.216051e-08
 1.751633e-05
 5.331799e-08
 7.863824e-08
 5.720170e-08
 3.382506e-08
 -1.719915e-08
 -1.043275e-07
 -2.103656e-07
 -3.234800e-07
 -4.722759e-07
 -5.366346e-07
 -2.991709e-07
 -1.039465e-07
 -1.633348e-07
 -1.879976e-07
 -1.696146e-07
 -1.696785e-07
 -1.256892e-07
 -6.550158e-08
 -1.784131e-07
 1.737092e-07
 -6.404781e-07
 -1.681475e-06
 -2.880649e-07
 1.605721e-07
 1.159914e-07
 -1.251403e-07
 2.872342e-07
 -6.519776e-07
 -1.944406e-06
 -9.466023e-07
 -9.706310e-07
 -1.033632e-06
 -7.143524e-07
 -1.836917e-07
 -1.514501e-07
 -1.429177e-06
 -2.460909e-07
 9.033065e-07
 4.938095e-07
 2.673905e-07
 1.045162e-07
 0.000000e+00
 0.000000e+00
 -7.750438e-09
 1.129530e-08
 6.346728e-08
 1.284471e-07
 2.019149e-07
 3.620248e-07
 9.863771e-07
 5.878922e-08
 -1.275032e-06
 -2.217105e-07
 -7.047760e-08
 -3.950199e-08
 -5.683924e-08
 -1.036174e-07
 -1.710430e-07
 -2.686427e-07
 -4.748999e-07
 -1.589326e-06
 -3.473536e-07
 4.258315e-07
 -2.766456e-07
 -1.996854e-07
 -5.478314e-08
 -1.563407e-07
 -2.161566e-07
 -1.558945e-07
 -9.939045e-08
 -1.330956e-07
 -3.809347e-07
 -5.587085e-07
 -3.632068e-07
 -1.069482e-07
 -2.612465e-08
 -5.385591e-08
 -1.262556e-07
 -4.385260e-07
 -7.597900e-07
 -8.037928e-07
 -9.058414e-07
 -2.056601e-06
 -1.735703e-06
 5.450152e-07
 8.355176e-07
 -1.145158e-07
 1.610125e-05
 -7.630118e-08
 8.659175e-07
 2.229169e-07
 6.199681e-08
 0.000000e+00
 0.000000e+00
 -4.845248e-08
 -3.143684e-08
 8.019791e-08
 2.018413e-07
 2.702829e-07
 3.364366e-07
 3.574331e-07
 8.586328e-08
 -2.179659e-07
 -2.045318e-07
 -1.078177e-07
 -7.016933e-08
 -6.758025e-08
 -8.451775e-08
 -1.102932e-07
 -1.368592e-07
 -1.547921e-07
 -2.275440e-07
 1.715212e-05
 -5.034237e-07
 -1.580837e-06
 -3.321082e-07
 4.928837e-07
 -2.748506e-07
 -4.625186e-07
 -2.113286e-07
 1.824065e-08
 -8.803800e-08
 -2.826448e-07
 -3.965164e-07
 -3.411179e-07
 -1.673589e-07
 -4.130005e-08
 -4.611491e-08
 -1.445020e-07
 -3.032811e-07
 -4.369629e-07
 -4.658533e-07
 -4.115087e-07
 -3.672744e-07
 1.713428e-05
 1.723715e-05
 1.873322e-08
 7.282735e-07
 -1.882947e-07
 1.599007e-05
 -3.609672e-07
 -1.269184e-07
 -5.256703e-08
 0.000000e+00
 0.000000e+00
 -1.563625e-07
 -1.981458e-07
 9.232919e-08
 3.575581e-07
 3.331702e-07
 2.641767e-07
 1.915998e-07
 6.256418e-08
 -6.229493e-08
 -1.016459e-07
 -8.627166e-08
 -6.769491e-08
 -5.941860e-08
 -5.701110e-08
 -4.904607e-08
 -1.072964e-08
 1.356364e-07
 7.541900e-07
 -1.796902e-07
 -1.516294e-06
 -5.213904e-07
 1.704101e-05
 -4.694949e-07
 -6.356952e-07
 -1.709895e-06
 -3.201866e-07
 6.469726e-07
 -1.887258e-08
 -2.619182e-07
 -4.325902e-07
 -4.640222e-07
 -1.596935e-07
 1.024135e-07
 4.323662e-08
 -8.664625e-08
 -1.917023e-07
 -2.461564e-07
 -2.049132e-07
 2.343278e-08
 8.639436e-07
 6.521482e-07
 -1.478619e-06
 -1.553291e-06
 -6.781313e-08
 5.895558e-07
 -4.772054e-07
 -1.677529e-06
 -4.282601e-07
 -1.465777e-07
 0.000000e+00
 0.000000e+00
 -2.073712e-07
 -1.279935e-06
 4.766383e-08
 9.736849e-07
 3.489153e-07
 1.877095e-07
 1.112381e-07
 4.033760e-08
 -2.144455e-08
 -5.359915e-08
 -5.889884e-08
 -5.290344e-08
 -4.454922e-08
 -3.343945e-08
 -1.211189e-08
 3.447842e-08
 1.257660e-07
 1.849166e-07
 -2.590029e-08
 -1.708734e-07
 4.635825e-07
 -3.845794e-07
 -1.725144e-06
 -7.572449e-07
 -6.731852e-07
 1.707854e-05
 -1.700871e-07
 -2.094302e-07
 -2.933052e-07
 -4.347285e-07
 -1.505995e-06
 -1.909226e-07
 7.407710e-07
 1.206097e-07
 -5.128475e-08
 -1.271290e-07
 -1.484465e-07
 -9.876466e-08
 4.802007e-08
 2.183812e-07
 6.799184e-08
 -3.956927e-07
 -5.546536e-07
 -3.061440e-07
 -1.322904e-07
 -3.253388e-07
 -5.029331e-07
 -3.442586e-07
 -1.342672e-07
 0.000000e+00
 0.000000e+00
 2.914630e-08
 1.266054e-08
 1.748362e-05
 3.573546e-08
 7.175322e-08
 5.556445e-08
 3.808873e-08
 1.151452e-08
 -1.613070e-08
 -3.457505e-08
 -4.102849e-08
 -3.885012e-08
 -3.137765e-08
 -1.887176e-08
 1.229272e-09
 3.148601e-08
 6.410688e-08
 6.381950e-08
 6.778730e-09
 -1.758158e-08
 -5.058780e-09
 -2.412098e-07
 -5.152660e-07
 -4.939698e-07
 -8.382663e-07
 -4.397157e-07
 -9.486773e-07
 -5.592488e-07
 -2.922584e-07
 -6.205233e-08
 -1.672688e-07
 1.722888e-05
 -1.720894e-07
 -7.037993e-08
 -8.085581e-08
 -1.107637e-07
 -1.201330e-07
 -9.281837e-08
 -3.980453e-08
 -1.878976e-08
 -1.128158e-07
 -2.881147e-07
 -3.863108e-07
 -3.594373e-07
 -3.160554e-07
 -3.094220e-07
 -2.486768e-07
 -1.272302e-07
 -4.162726e-08
 0.000000e+00
 0.000000e+00
 2.279987e-07
 8.963756e-07
 1.420109e-09
 -1.307616e-06
 -2.357320e-07
 -6.998060e-08
 -2.341597e-08
 -1.589633e-08
 -2.168437e-08
 -2.869828e-08
 -3.164674e-08
 -2.948586e-08
 -2.272591e-08
 -1.173616e-08
 3.247664e-09
 2.028254e-08
 3.243011e-08
 2.845368e-08
 7.070439e-09
 -1.655460e-08
 -5.355214e-08
 -1.341239e-07
 -1.863042e-07
 -1.095284e-07
 -8.020687e-08
 1.710455e-05
 -7.887574e-07
 -1.782636e-06
 -3.341521e-07
 7.433287e-07
 6.627800e-07
 -4.241687e-07
 -1.502178e-06
 -2.023423e-07
 -8.952892e-08
 -1.204254e-07
 -1.318410e-07
 -1.208627e-07
 -1.058404e-07
 -1.171305e-07
 -1.804879e-07
 -2.842727e-07
 -3.787767e-07
 -4.161771e-07
 -4.242758e-07
 -3.717472e-07
 -8.166874e-08
 1.528243e-07
 1.012197e-07
 0.000000e+00
 0.000000e+00
 1.519481e-07
 2.374338e-07
 1.140929e-08
 -2.592562e-07
 -2.211027e-07
 -1.055662e-07
 -5.175234e-08
 -3.166993e-08
 -2.710931e-08
 -2.761853e-08
 -2.759837e-08
 -2.464713e-08
 -1.823308e-08
 -8.818197e-09
 2.331135e-09
 1.273009e-08
 1.840792e-08
 1.556252e-08
 4.249826e-09
 -1.210220e-08
 -3.239976e-08
 -4.760087e-08
 -1.508551e-08
 1.527114e-07
 7.757936e-07
 -2.200344e-07
 -1.616280e-06
 -5.839833e-07
 1.710239e-05
 -2.277233e-07
 -2.650321e-07
 -1.564273e-06
 -5.131482e-07
 4.425463e-07
 -6.925868e-08
 -1.604521e-07
 -1.679172e-07
 -1.554324e-07
 -1.456705e-07
 -1.558952e-07
 -2.002663e-07
 -2.890161e-07
 -4.404795e-07
 -5.300052e-07
 -4.107156e-07
 -1.227870e-06
 4.678582e-08
 8.810699e-07
 2.064415e-07
 0.000000e+00
 0.000000e+00
 5.505990e-08
 6.061789e-08
 -1.720703e-08
 -1.040876e-07
 -1.146853e-07
 -7.941081e-08
 -4.850527e-08
 -3.312948e-08
 -2.824318e-08
 -2.759813e-08
 -2.677983e-08
 -2.341622e-08
 -1.685594e-08
 -7.834730e-09
 1.861583e-09
 9.826508e-09
 1.367002e-08
 1.202470e-08
 5.535287e-09
 -3.191432e-09
 -9.513822e-09
 -3.049143e-09
 3.598601e-08
 1.258220e-07
 1.767468e-07
 -5.517570e-08
 -2.106970e-07
 4.548790e-07
 -3.128057e-07
 -1.533103e-06
 -4.272904e-07
 -3.606705e-07
 1.706663e-05
 -3.800333e-07
 -2.982058e-07
 -2.598104e-07
 -2.198204e-07
 -1.870617e-07
 -1.650968e-07
 -1.592965e-07
 -1.770226e-07
 -2.349404e-07
 -4.041994e-07
 -1.466211e-06
 -1.251851e-07
 7.691680e-07
 1.760643e-05
 6.978625e-09
 9.967108e-09
 0.000000e+00
 0.000000e+00
 4.858379e-09
 -5.933422e-09
 -3.327080e-08
 -5.505959e-08
 -5.395573e-08
 -3.959709e-08
 -2.798989e-08
 -2.414207e-08
 -2.549631e-08
 -2.810019e-08
 -2.879170e-08
 -2.561307e-08
 -1.811740e-08
 -7.634640e-09
 3.113515e-09
 1.120870e-08
 1.479602e-08
 1.367849e-08
 9.255031e-09
 4.214408e-09
 2.531597e-09
 9.647189e-09
 2.989682e-08
 5.462564e-08
 4.555601e-08
 -2.034960e-08
 -4.458003e-08
 -1.161245e-08
 -2.008897e-07
 -3.925692e-07
 -1.903092e-07
 5.352165e-07
 -3.527353e-07
 -1.654456e-06
 -5.582627e-07
 -3.556264e-07
 -2.643505e-07
 -2.083382e-07
 -1.685453e-07
 -1.399742e-07
 -1.194932e-07
 -9.957987e-08
 -5.929752e-08
 -2.833870e-08
 1.760385e-05
 7.981428e-07
 -6.261486e-08
 -1.364099e-06
 -2.511606e-07
 0.000000e+00
 0.000000e+00
 -2.735446e-08
 -5.053838e-08
 -5.583520e-08
 -3.526696e-08
 -7.139809e-09
 5.578106e-09
 1.501932e-09
 -9.865527e-09
 -2.167010e-08
 -3.071076e-08
 -3.492318e-08
 -3.244377e-08
 -2.262612e-08
 -7.734180e-09
 7.218854e-09
 1.739471e-08
 2.090051e-08
 1.884361e-08
 1.378662e-08
 8.564494e-09
 5.841312e-09
 7.551676e-09
 1.290651e-08
 1.495037e-08
 1.972557e-09
 -2.645820e-08
 -5.238263e-08
 -8.467897e-08
 -1.552846e-07
 -1.991369e-07
 -1.289149e-07
 -5.904135e-08
 -2.884069e-07
 -5.575774e-07
 -5.080489e-07
 -3.691506e-07
 -2.801554e-07
 -2.152247e-07
 -1.609632e-07
 -1.118339e-07
 -5.972559e-08
 2.141633e-08
 2.186092e-07
 9.144865e-07
 1.060180e-07
 -1.142967e-06
 -2.941528e-07
 -3.707433e-07
 -2.273964e-07
 0.000000e+00
 0.000000e+00
 -6.122399e-08
 -1.135398e-07
 -1.104796e-07
 -2.394824e-08
 6.029837e-08
 6.919360e-08
 3.737482e-08
 4.194146e-09
 -2.073479e-08
 -3.812437e-08
 -4.792111e-08
 -4.715656e-08
 -3.276950e-08
 -7.858643e-09
 1.669196e-08
 3.079765e-08
 3.278991e-08
 2.702829e-08
 1.845558e-08
 1.033636e-08
 4.332857e-09
 7.057927e-10
 -2.130966e-09
 -7.919987e-09
 -2.065342e-08
 -4.048393e-08
 -6.451228e-08
 -9.428859e-08
 -1.293245e-07
 -1.511008e-07
 -1.507356e-07
 -1.729529e-07
 -2.668137e-07
 -3.646081e-07
 -3.783209e-07
 -3.330399e-07
 -2.745953e-07
 -2.128201e-07
 -1.478953e-07
 -8.413423e-08
 -2.155530e-08
 5.504056e-08
 1.712955e-07
 2.534582e-07
 4.156079e-08
 -2.372970e-07
 -2.663058e-07
 -2.092812e-07
 -1.217328e-07
 0.000000e+00
 0.000000e+00
 -9.472986e-08
 -2.314450e-07
 -2.781287e-07
 -6.534254e-09
 2.300688e-07
 1.694930e-07
 6.846379e-08
 8.876882e-09
 -2.701824e-08
 -5.252212e-08
 -7.132073e-08
 -7.664622e-08
 -5.513874e-08
 -7.445690e-09
 3.840282e-08
 5.738151e-08
 5.239850e-08
 3.767866e-08
 2.240908e-08
 9.783389e-09
 1.449633e-10
 -7.356147e-09
 -1.436661e-08
 -2.306804e-08
 -3.530395e-08
 -5.155130e-08
 -7.126368e-08
 -9.388186e-08
 -1.172505e-07
 -1.370942e-07
 -1.554015e-07
 -1.859593e-07
 -2.361358e-07
 -2.852804e-07
 -3.076002e-07
 -3.012221e-07
 -2.718369e-07
 -2.148994e-07
 -1.329879e-07
 -5.232537e-08
 5.431438e-09
 4.518818e-08
 7.111751e-08
 5.191688e-08
 -4.361971e-08
 -1.397924e-07
 -1.508351e-07
 -1.063499e-07
 -5.271313e-08
 0.000000e+00
 0.000000e+00
 -8.518833e-08
 -2.696280e-07
 -1.347903e-06
 -3.667565e-08
 8.688011e-07
 2.245731e-07
 5.418945e-08
 -8.421908e-09
 -4.216299e-08
 -7.184058e-08
 -1.064079e-07
 -1.353038e-07
 -1.101467e-07
 -4.423113e-09
 9.338116e-08
 1.095048e-07
 8.035200e-08
 4.783082e-08
 2.330895e-08
 6.079844e-09
 -6.310609e-09
 -1.602069e-08
 -2.486806e-08
 -3.440443e-08
 -4.572853e-08
 -5.926540e-08
 -7.486397e-08
 -9.199801e-08
 -1.097334e-07
 -1.274866e-07
 -1.471336e-07
 -1.727983e-07
 -2.053487e-07
 -2.387479e-07
 -2.667574e-07
 -2.892854e-07
 -2.977193e-07
 -2.478489e-07
 -1.158023e-07
 8.733642e-09
 5.057370e-08
 4.146399e-08
 1.123570e-08
 -4.615750e-08
 -1.249483e-07
 -1.573458e-07
 -8.976530e-08
 -3.923785e-09
 1.781833e-08
 0.000000e+00
 0.000000e+00
 -4.357054e-09
 2.537791e-09
 -3.401521e-08
 1.741783e-05
 -4.689696e-08
 -2.238265e-08
 -4.057639e-08
 -4.835287e-08
 -5.950922e-08
 -8.410192e-08
 -1.381839e-07
 -2.482909e-07
 -2.754653e-07
 1.077197e-08
 2.574962e-07
 2.029924e-07
 1.053710e-07
 4.856691e-08
 1.681178e-08
 -2.376075e-09
 -1.539156e-08
 -2.551357e-08
 -3.460703e-08
 -4.382836e-08
 -5.383909e-08
 -6.487142e-08
 -7.684037e-08
 -8.950501e-08
 -1.026688e-07
 -1.165716e-07
 -1.322793e-07
 -1.511846e-07
 -1.736444e-07
 -1.992444e-07
 -2.310542e-07
 -2.826500e-07
 -3.818204e-07
 -3.924483e-07
 -8.685649e-08
 1.794667e-07
 1.414350e-07
 5.088837e-08
 -2.024800e-08
 -1.079834e-07
 -2.512835e-07
 -3.094813e-07
 -4.522736e-08
 1.896457e-07
 1.249046e-07
 0.000000e+00
 0.000000e+00
 6.934858e-08
 2.356947e-07
 8.703874e-07
 -4.778801e-08
 -1.373093e-06
 -3.093559e-07
 -1.418597e-07
 -8.470013e-08
 -6.439353e-08
 -6.917641e-08
 -1.142337e-07
 -2.752197e-07
 -1.338339e-06
 -1.700645e-08
 8.948060e-07
 2.540429e-07
 8.564842e-08
 2.580270e-08
 -1.236328e-09
 -1.653169e-08
 -2.715696e-08
 -3.592986e-08
 -4.413920e-08
 -5.238892e-08
 -6.087360e-08
 -6.951531e-08
 -7.812169e-08
 -8.658034e-08
 -9.503112e-08
 -1.039460e-07
 -1.140108e-07
 -1.257533e-07
 -1.392974e-07
 -1.552886e-07
 -1.785439e-07
 -2.289797e-07
 -3.854211e-07
 -1.437338e-06
 -1.012344e-07
 8.260637e-07
 1.982930e-07
 3.555080e-08
 -3.514200e-08
 -1.118121e-07
 -2.928083e-07
 -1.369469e-06
 -5.546976e-08
 8.531404e-07
 2.047550e-07
 0.000000e+00
 0.000000e+00
 7.177711e-08
 1.719747e-07
 2.234958e-07
 -2.748117e-08
 -3.156023e-07
 -2.845866e-07
 -1.630218e-07
 -9.125469e-08
 -4.745227e-08
 -2.080910e-08
 -4.229960e-09
 1.576852e-08
 -1.279926e-08
 1.744359e-05
 -1.934577e-08
 4.683600e-09
 -1.518560e-08
 -2.339837e-08
 -2.926562e-08
 -3.478768e-08
 -4.056026e-08
 -4.680842e-08
 -5.356565e-08
 -6.066781e-08
 -6.773067e-08
 -7.420851e-08
 -7.959515e-08
 -8.372421e-08
 -8.697433e-08
 -9.014416e-08
 -9.396603e-08
 -9.853754e-08
 -1.030549e-07
 -1.060159e-07
 -1.056117e-07
 -9.923177e-08
 -7.772050e-08
 -9.732295e-08
 1.737201e-05
 -7.655404e-08
 -3.853025e-08
 -4.601681e-08
 -4.373115e-08
 -3.876637e-08
 -2.217949e-08
 -4.762618e-08
 1.741752e-05
 -3.247159e-08
 6.436596e-09
 0.000000e+00
 0.000000e+00
 4.088872e-08
 7.099951e-08
 5.100056e-08
 -5.251652e-08
 -1.616078e-07
 -1.819782e-07
 -1.353399e-07
 -7.223761e-08
 -1.385365e-08
 3.831270e-08
 1.064826e-07
 2.726508e-07
 9.065201e-07
 -1.323784e-08
 -1.341607e-06
 -2.832760e-07
 -1.234508e-07
 -7.421276e-08
 -5.748362e-08
 -5.274666e-08
 -5.345983e-08
 -5.714533e-08
 -6.260814e-08
 -6.895464e-08
 -7.517575e-08
 -8.005183e-08
 -8.242727e-08
 -8.182881e-08
 -7.898961e-08
 -7.557507e-08
 -7.300619e-08
 -7.125143e-08
 -6.833397e-08
 -6.006502e-08
 -3.806246e-08
 1.951634e-08
 1.885741e-07
 8.326650e-07
 -7.349741e-08
 -1.386815e-06
 -3.122087e-07
 -1.327914e-07
 -5.327071e-08
 2.721325e-08
 2.079315e-07
 8.622218e-07
 -3.123208e-08
 -1.328223e-06
 -2.296632e-07
 0.000000e+00
 0.000000e+00
 1.461280e-08
 1.624196e-08
 -1.031917e-08
 -6.736267e-08
 -1.261003e-07
 -1.479376e-07
 -1.169511e-07
 -4.626412e-08
 2.952220e-08
 8.867487e-08
 1.464351e-07
 2.333433e-07
 2.751508e-07
 1.730868e-08
 -2.776816e-07
 -2.568890e-07
 -1.509219e-07
 -9.902748e-08
 -7.544102e-08
 -6.579459e-08
 -6.356350e-08
 -6.574289e-08
 -7.074001e-08
 -7.732121e-08
 -8.396474e-08
 -8.851007e-08
 -8.845966e-08
 -8.236077e-08
 -7.153968e-08
 -5.989140e-08
 -5.089600e-08
 -4.479649e-08
 -3.841488e-08
 -2.618471e-08
 1.692188e-10
 5.414768e-08
 1.517794e-07
 2.089283e-07
 -3.282755e-08
 -3.117821e-07
 -2.741223e-07
 -1.474504e-07
 -6.365707e-08
 1.868474e-08
 1.355159e-07
 2.152528e-07
 2.937515e-09
 -2.443039e-07
 -1.740027e-07
 0.000000e+00
 0.000000e+00
 3.222075e-10
 -8.555032e-09
 -3.432465e-08
 -7.853220e-08
 -1.324489e-07
 -1.715500e-07
 -1.430381e-07
 -2.293659e-08
 9.736136e-08
 1.436318e-07
 1.518998e-07
 1.525051e-07
 1.149966e-07
 2.423376e-09
 -1.136887e-07
 -1.467046e-07
 -1.246976e-07
 -9.798481e-08
 -8.067573e-08
 -7.195041e-08
 -6.946620e-08
 -7.157359e-08
 -7.723387e-08
 -8.550217e-08
 -9.476019e-08
 -1.017172e-07
 -1.010644e-07
 -8.814536e-08
 -6.484011e-08
 -4.091677e-08
 -2.528208e-08
 -1.827216e-08
 -1.396961e-08
 -5.569934e-09
 1.219436e-08
 4.112353e-08
 6.989359e-08
 5.610900e-08
 -3.730825e-08
 -1.372050e-07
 -1.554133e-07
 -1.182160e-07
 -7.296801e-08
 -2.933002e-08
 1.303379e-08
 3.060166e-08
 -9.784582e-09
 -5.891261e-08
 -4.926271e-08
 0.000000e+00
 0.000000e+00
 -4.651811e-09
 -1.542165e-08
 -3.801395e-08
 -7.826925e-08
 -1.465887e-07
 -2.643237e-07
 -2.903673e-07
 4.983959e-09
 2.668918e-07
 2.313956e-07
 1.524593e-07
 1.044576e-07
 5.726746e-08
 -4.564715e-09
 -6.247678e-08
 -9.187005e-08
 -9.442954e-08
 -8.600228e-08
 -7.729132e-08
 -7.202009e-08
 -7.088582e-08
 -7.387327e-08
 -8.101750e-08
 -9.240697e-08
 -1.074322e-07
 -1.225003e-07
 -1.271487e-07
 -1.060323e-07
 -5.856905e-08
 -1.183424e-08
 1.006065e-08
 1.097759e-08
 6.089364e-09