<VTKFile type="UnstructuredGrid"  version="0.1"   >
<UnstructuredGrid>  
<Piece  NumberOfPoints="     2601"  NumberOfCells="     5000">  
<Points>  
<DataArray  type="Float64"  NumberOfComponents="3"  format="ascii">  
 0.000000 0.000000 0.000000 
 0.020000 0.000000 0.000000 
 0.040000 0.000000 0.000000 
 0.060000 0.000000 0.000000 
 0.080000 0.000000 0.000000 
 0.100000 0.000000 0.000000 
 0.120000 0.000000 0.000000 
 0.140000 0.000000 0.000000 
 0.160000 0.000000 0.000000 
 0.180000 0.000000 0.000000 
 0.200000 0.000000 0.000000 
 0.220000 0.000000 0.000000 
 0.240000 0.000000 0.000000 
 0.260000 0.000000 0.000000 
 0.280000 0.000000 0.000000 
 0.300000 0.000000 0.000000 
 0.320000 0.000000 0.000000 
 0.340000 0.000000 0.000000 
 0.360000 0.000000 0.000000 
 0.380000 0.000000 0.000000 
 0.400000 0.000000 0.000000 
 0.420000 0.000000 0.000000 
 0.440000 0.000000 0.000000 
 0.460000 0.000000 0.000000 
 0.480000 0.000000 0.000000 
 0.500000 0.000000 0.000000 
 0.520000 0.000000 0.000000 
 0.540000 0.000000 0.000000 
 0.560000 0.000000 0.000000 
 0.580000 0.000000 0.000000 
 0.600000 0.000000 0.000000 
 0.620000 0.000000 0.000000 
 0.640000 0.000000 0.000000 
 0.660000 0.000000 0.000000 
 0.680000 0.000000 0.000000 
 0.700000 0.000000 0.000000 
 0.720000 0.000000 0.000000 
 0.740000 0.000000 0.000000 
 0.760000 0.000000 0.000000 
 0.780000 0.000000 0.000000 
 0.800000 0.000000 0.000000 
 0.820000 0.000000 0.000000 
 0.840000 0.000000 0.000000 
 0.860000 0.000000 0.000000 
 0.880000 0.000000 0.000000 
 0.900000 0.000000 0.000000 
 0.920000 0.000000 0.000000 
 0.940000 0.000000 0.000000 
 0.960000 0.000000 0.000000 
 0.980000 0.000000 0.000000 
 1.000000 0.000000 0.000000 
 0.000000 0.020000 0.000000 
 0.020000 0.020000 0.000000 
 0.040000 0.020000 0.000000 
 0.060000 0.020000 0.000000 
 0.080000 0.020000 0.000000 
 0.100000 0.020000 0.000000 
 0.120000 0.020000 0.000000 
 0.140000 0.020000 0.000000 
 0.160000 0.020000 0.000000 
 0.180000 0.020000 0.000000 
 0.200000 0.020000 0.000000 
 0.220000 0.020000 0.000000 
 0.240000 0.020000 0.000000 
 0.260000 0.020000 0.000000 
 0.280000 0.020000 0.000000 
 0.300000 0.020000 0.000000 
 0.320000 0.020000 0.000000 
 0.340000 0.020000 0.000000 
 0.360000 0.020000 0.000000 
 0.380000 0.020000 0.000000 
 0.400000 0.020000 0.000000 
 0.420000 0.020000 0.000000 
 0.440000 0.020000 0.000000 
 0.460000 0.020000 0.000000 
 0.480000 0.020000 0.000000 
 0.500000 0.020000 0.000000 
 0.520000 0.020000 0.000000 
 0.540000 0.020000 0.000000 
 0.560000 0.020000 0.000000 
 0.580000 0.020000 0.000000 
 0.600000 0.020000 0.000000 
 0.620000 0.020000 0.000000 
 0.640000 0.020000 0.000000 
 0.660000 0.020000 0.000000 
 0.680000 0.020000 0.000000 
 0.700000 0.020000 0.000000 
 0.720000 0.020000 0.000000 
 0.740000 0.020000 0.000000 
 0.760000 0.020000 0.000000 
 0.780000 0.020000 0.000000 
 0.800000 0.020000 0.000000 
 0.820000 0.020000 0.000000 
 0.840000 0.020000 0.000000 
 0.860000 0.020000 0.000000 
 0.880000 0.020000 0.000000 
 0.900000 0.020000 0.000000 
 0.920000 0.020000 0.000000 
 0.940000 0.020000 0.000000 
 0.960000 0.020000 0.000000 
 0.980000 0.020000 0.000000 
 1.000000 0.020000 0.000000 
 0.000000 0.040000 0.000000 
 0.020000 0.040000 0.000000 
 0.040000 0.040000 0.000000 
 0.060000 0.040000 0.000000 
 0.080000 0.040000 0.000000 
 0.100000 0.040000 0.000000 
 0.120000 0.040000 0.000000 
 0.140000 0.040000 0.000000 
 0.160000 0.040000 0.000000 
 0.180000 0.040000 0.000000 
 0.200000 0.040000 0.000000 
 0.220000 0.040000 0.000000 
 0.240000 0.040000 0.000000 
 0.260000 0.040000 0.000000 
 0.280000 0.040000 0.000000 
 0.300000 0.040000 0.000000 
 0.320000 0.040000 0.000000 
 0.340000 0.040000 0.000000 
 0.360000 0.040000 0.000000 
 0.380000 0.040000 0.000000 
 0.400000 0.040000 0.000000 
 0.420000 0.040000 0.000000 
 0.440000 0.040000 0.000000 
 0.460000 0.040000 0.000000 
 0.480000 0.040000 0.000000 
 0.500000 0.040000 0.000000 
 0.520000 0.040000 0.000000 
 0.540000 0.040000 0.000000 
 0.560000 0.040000 0.000000 
 0.580000 0.040000 0.000000 
 0.600000 0.040000 0.000000 
 0.620000 0.040000 0.000000 
 0.640000 0.040000 0.000000 
 0.660000 0.040000 0.000000 
 0.680000 0.040000 0.000000 
 0.700000 0.040000 0.000000 
 0.720000 0.040000 0.000000 
 0.740000 0.040000 0.000000 
 0.760000 0.040000 0.000000 
 0.780000 0.040000 0.000000 
 0.800000 0.040000 0.000000 
 0.820000 0.040000 0.000000 
 0.840000 0.040000 0.000000 
 0.860000 0.040000 0.000000 
 0.880000 0.040000 0.000000 
 0.900000 0.040000 0.000000 
 0.920000 0.040000 0.000000 
 0.940000 0.040000 0.000000 
 0.960000 0.040000 0.000000 
 0.980000 0.040000 0.000000 
 1.000000 0.040000 0.000000 
 0.000000 0.060000 0.000000 
 0.020000 0.060000 0.000000 
 0.040000 0.060000 0.000000 
 0.060000 0.060000 0.000000 
 0.080000 0.060000 0.000000 
 0.100000 0.060000 0.000000 
 0.120000 0.060000 0.000000 
 0.140000 0.060000 0.000000 
 0.160000 0.060000 0.000000 
 0.180000 0.060000 0.000000 
 0.200000 0.060000 0.000000 
 0.220000 0.060000 0.000000 
 0.240000 0.060000 0.000000 
 0.260000 0.060000 0.000000 
 0.280000 0.060000 0.000000 
 0.300000 0.060000 0.000000 
 0.320000 0.060000 0.000000 
 0.340000 0.060000 0.000000 
 0.360000 0.060000 0.000000 
 0.380000 0.060000 0.000000 
 0.400000 0.060000 0.000000 
 0.420000 0.060000 0.000000 
 0.440000 0.060000 0.000000 
 0.460000 0.060000 0.000000 
 0.480000 0.060000 0.000000 
 0.500000 0.060000 0.000000 
 0.520000 0.060000 0.000000 
 0.540000 0.060000 0.000000 
 0.560000 0.060000 0.000000 
 0.580000 0.060000 0.000000 
 0.600000 0.060000 0.000000 
 0.620000 0.060000 0.000000 
 0.640000 0.060000 0.000000 
 0.660000 0.060000 0.000000 
 0.680000 0.060000 0.000000 
 0.700000 0.060000 0.000000 
 0.720000 0.060000 0.000000 
 0.740000 0.060000 0.000000 
 0.760000 0.060000 0.000000 
 0.780000 0.060000 0.000000 
 0.800000 0.060000 0.000000 
 0.820000 0.060000 0.000000 
 0.840000 0.060000 0.000000 
 0.860000 0.060000 0.000000 
 0.880000 0.060000 0.000000 
 0.900000 0.060000 0.000000 
 0.920000 0.060000 0.000000 
 0.940000 0.060000 0.000000 
 0.960000 0.060000 0.000000 
 0.980000 0.060000 0.000000 
 1.000000 0.060000 0.000000 
 0.000000 0.080000 0.000000 
 0.020000 0.080000 0.000000 
 0.040000 0.080000 0.000000 
 0.060000 0.080000 0.000000 
 0.080000 0.080000 0.000000 
 0.100000 0.080000 0.000000 
 0.120000 0.080000 0.000000 
 0.140000 0.080000 0.000000 
 0.160000 0.080000 0.000000 
 0.180000 0.080000 0.000000 
 0.200000 0.080000 0.000000 
 0.220000 0.080000 0.000000 
 0.240000 0.080000 0.000000 
 0.260000 0.080000 0.000000 
 0.280000 0.080000 0.000000 
 0.300000 0.080000 0.000000 
 0.320000 0.080000 0.000000 
 0.340000 0.080000 0.000000 
 0.360000 0.080000 0.000000 
 0.380000 0.080000 0.000000 
 0.400000 0.080000 0.000000 
 0.420000 0.080000 0.000000 
 0.440000 0.080000 0.000000 
 0.460000 0.080000 0.000000 
 0.480000 0.080000 0.000000 
 0.500000 0.080000 0.000000 
 0.520000 0.080000 0.000000 
 0.540000 0.080000 0.000000 
 0.560000 0.080000 0.000000 
 0.580000 0.080000 0.000000 
 0.600000 0.080000 0.000000 
 0.620000 0.080000 0.000000 
 0.640000 0.080000 0.000000 
 0.660000 0.080000 0.000000 
 0.680000 0.080000 0.000000 
 0.700000 0.080000 0.000000 
 0.720000 0.080000 0.000000 
 0.740000 0.080000 0.000000 
 0.760000 0.080000 0.000000 
 0.780000 0.080000 0.000000 
 0.800000 0.080000 0.000000 
 0.820000 0.080000 0.000000 
 0.840000 0.080000 0.000000 
 0.860000 0.080000 0.000000 
 0.880000 0.080000 0.000000 
 0.900000 0.080000 0.000000 
 0.920000 0.080000 0.000000 
 0.940000 0.080000 0.000000 
 0.960000 0.080000 0.000000 
 0.980000 0.080000 0.000000 
 1.000000 0.080000 0.000000 
 0.000000 0.100000 0.000000 
 0.020000 0.100000 0.000000 
 0.040000 0.100000 0.000000 
 0.060000 0.100000 0.000000 
 0.080000 0.100000 0.000000 
 0.100000 0.100000 0.000000 
 0.120000 0.100000 0.000000 
 0.140000 0.100000 0.000000 
 0.160000 0.100000 0.000000 
 0.180000 0.100000 0.000000 
 0.200000 0.100000 0.000000 
 0.220000 0.100000 0.000000 
 0.240000 0.100000 0.000000 
 0.260000 0.100000 0.000000 
 0.280000 0.100000 0.000000 
 0.300000 0.100000 0.000000 
 0.320000 0.100000 0.000000 
 0.340000 0.100000 0.000000 
 0.360000 0.100000 0.000000 
 0.380000 0.100000 0.000000 
 0.400000 0.100000 0.000000 
 0.420000 0.100000 0.000000 
 0.440000 0.100000 0.000000 
 0.460000 0.100000 0.000000 
 0.480000 0.100000 0.000000 
 0.500000 0.100000 0.000000 
 0.520000 0.100000 0.000000 
 0.540000 0.100000 0.000000 
 0.560000 0.100000 0.000000 
 0.580000 0.100000 0.000000 
 0.600000 0.100000 0.000000 
 0.620000 0.100000 0.000000 
 0.640000 0.100000 0.000000 
 0.660000 0.100000 0.000000 
 0.680000 0.100000 0.000000 
 0.700000 0.100000 0.000000 
 0.720000 0.100000 0.000000 
 0.740000 0.100000 0.000000 
 0.760000 0.100000 0.000000 
 0.780000 0.100000 0.000000 
 0.800000 0.100000 0.000000 
 0.820000 0.100000 0.000000 
 0.840000 0.100000 0.000000 
 0.860000 0.100000 0.000000 
 0.880000 0.100000 0.000000 
 0.900000 0.100000 0.000000 
 0.920000 0.100000 0.000000 
 0.940000 0.100000 0.000000 
 0.960000 0.100000 0.000000 
 0.980000 0.100000 0.000000 
 1.000000 0.100000 0.000000 
 0.000000 0.120000 0.000000 
 0.020000 0.120000 0.000000 
 0.040000 0.120000 0.000000 
 0.060000 0.120000 0.000000 
 0.080000 0.120000 0.000000 
 0.100000 0.120000 0.000000 
 0.120000 0.120000 0.000000 
 0.140000 0.120000 0.000000 
 0.160000 0.120000 0.000000 
 0.180000 0.120000 0.000000 
 0.200000 0.120000 0.000000 
 0.220000 0.120000 0.000000 
 0.240000 0.120000 0.000000 
 0.260000 0.120000 0.000000 
 0.280000 0.120000 0.000000 
 0.300000 0.120000 0.000000 
 0.320000 0.120000 0.000000 
 0.340000 0.120000 0.000000 
 0.360000 0.120000 0.000000 
 0.380000 0.120000 0.000000 
 0.400000 0.120000 0.000000 
 0.420000 0.120000 0.000000 
 0.440000 0.120000 0.000000 
 0.460000 0.120000 0.000000 
 0.480000 0.120000 0.000000 
 0.500000 0.120000 0.000000 
 0.520000 0.120000 0.000000 
 0.540000 0.120000 0.000000 
 0.560000 0.120000 0.000000 
 0.580000 0.120000 0.000000 
 0.600000 0.120000 0.000000 
[...]
<PointData  Scalars="U"> 
<DataArray  type="Float64"  Name="U"  format="ascii"> 
 0.000000e+00
 0.000000e+00
 0.000000e+00
 0.000000e+00
 0.000000e+00
 0.000000e+00
 0.000000e+00
 0.000000e+00
 0.000000e+00
 0.000000e+00
 0.000000e+00
 0.000000e+00
 0.000000e+00
 0.000000e+00
 0.000000e+00
 0.000000e+00
 0.000000e+00
 0.000000e+00
 0.000000e+00
 0.000000e+00
 0.000000e+00
 0.000000e+00
 0.000000e+00
 0.000000e+00
 0.000000e+00
 0.000000e+00
 0.000000e+00
 0.000000e+00
 0.000000e+00
 0.000000e+00
 0.000000e+00
 0.000000e+00
 0.000000e+00
 0.000000e+00
 0.000000e+00
 0.000000e+00
 0.000000e+00
 0.000000e+00
 0.000000e+00
 0.000000e+00
 0.000000e+00
 0.000000e+00
 0.000000e+00
 0.000000e+00
 0.000000e+00
 0.000000e+00
 0.000000e+00
 0.000000e+00
 0.000000e+00
 0.000000e+00
 0.000000e+00
 0.000000e+00
 -1.501371e-08
 -3.274466e-08
 -5.532056e-08
 -8.228574e-08
 -9.972824e-08
 -6.197534e-08
 5.445170e-08
 1.695409e-07
 2.338839e-07
 3.243656e-07
 2.886525e-07
 1.743756e-05
 -2.829759e-07
 -2.083489e-07
 -1.305952e-07
 -8.102690e-08
 -5.555582e-08
 -4.499471e-08
 -4.389798e-08
 -4.912938e-08
 -5.815260e-08
 -6.583653e-08
 -5.819809e-08
 -8.269056e-09
 1.140834e-07
 7.664336e-08
 1.712479e-05
 -8.919044e-07
 -1.671054e-06
 -3.681339e-06
 -3.853448e-06
 -1.287490e-06
 -5.728927e-07
 -2.563861e-07
 -1.465218e-07
 -1.337165e-07
 -1.666743e-07
 -2.590886e-07
 -2.852285e-07
 -2.114108e-08
 2.026206e-07
 1.472155e-07
 6.473360e-08
 2.277059e-08
 -3.759464e-10
 -1.404734e-08
 -1.991481e-08
 -1.828755e-08
 -1.001965e-08
 0.000000e+00
 0.000000e+00
 -2.723502e-08
 -6.035552e-08
 -1.048991e-07
 -1.663378e-07
 -2.552693e-07
 -2.301057e-07
 1.172913e-07
 4.197122e-07
 4.413345e-07
 5.170022e-07
 1.054489e-06
 -9.616756e-09
 -1.454161e-06
 -4.167754e-07
 -2.247639e-07
 -1.385697e-07
 -9.689114e-08
 -8.089576e-08
 -8.160478e-08
 -9.414840e-08
 -1.161868e-07
 -1.442927e-07
 -1.579702e-07
 -9.136590e-08
 1.345114e-07
 7.281583e-07
 -4.697866e-07
 -2.258756e-06
 -1.814903e-06
 -2.276410e-06
 -2.274898e-06
 -1.650984e-06
 -8.322620e-07
 -3.023201e-07
 -2.085220e-07
 -2.336174e-07
 -2.785544e-07
 -4.144297e-07
 -1.437888e-06
 -8.433385e-08
 8.495003e-07
 2.344479e-07
 8.760099e-08
 2.987569e-08
 -9.122614e-09
 -3.579715e-08
 -4.747256e-08
 -4.326918e-08
 -2.546396e-08
 0.000000e+00
 0.000000e+00
 -3.352906e-08
 -7.636268e-08
 -1.382813e-07
 -2.254070e-07
 -3.619822e-07
 -1.303101e-06
 1.506974e-07
 1.129007e-06
 5.265171e-07
 4.153142e-07
 3.489780e-07
 -8.592984e-10
 -3.617777e-07
 -3.603247e-07
 -2.364318e-07
 -1.560885e-07
 -1.137301e-07
 -1.007071e-07
 -1.079402e-07
 -1.297349e-07
 -1.663537e-07
 -2.272457e-07
 -3.341927e-07
 -3.458553e-07
 -3.867783e-08
 1.189161e-07
 -4.115047e-07
 -1.096819e-06
 -1.457035e-06
 -1.641646e-06
 -1.728843e-06
 -2.515419e-06
 -8.908805e-07
 2.490288e-07
 -2.435424e-07
 -3.253586e-07
 -3.310032e-07
 -2.700265e-07
 -1.901226e-07
 1.735561e-05
 -6.494305e-08
 2.381941e-08
 5.400249e-08
 2.597561e-08
 -2.974467e-08
 -7.298280e-08
 -9.140640e-08
 -8.258329e-08
 -4.881325e-08
 0.000000e+00
 0.000000e+00
 -3.069920e-08
 -7.303808e-08
 -1.436044e-07
 -2.648025e-07
 -2.787532e-07
 5.059997e-09
 1.776669e-05
 3.130609e-07
 2.815389e-07
 2.117877e-07
 1.117825e-07
 -6.251866e-08
 -2.228892e-07
 -2.603729e-07
 -2.032481e-07
 -1.352183e-07
 -1.010661e-07
 -1.009066e-07
 -1.206897e-07
 -1.519080e-07
 -1.948159e-07
 -2.647911e-07
 -4.374207e-07
 -1.509437e-06
 -2.281995e-07
 5.482636e-07
 -3.631598e-07
 -8.376961e-07
 -1.095234e-06
 -1.173424e-06
 -1.105040e-06
 -9.946911e-07
 1.663208e-05
 -6.700119e-07
 -5.170373e-07
 -4.573418e-07
 -4.410394e-07
 -2.547602e-07
 6.848814e-07
 -4.590758e-08
 -1.443030e-06
 -2.133402e-07
 1.083148e-07
 4.622302e-08
 -6.870712e-08
 -1.358473e-07
 -1.631715e-07
 -1.483735e-07
 -8.810834e-08
 0.000000e+00
 0.000000e+00
 -1.704399e-08
 -4.317673e-08
 -9.653520e-08
 -2.365129e-07
 -1.162141e-06
 8.254176e-07
 9.336078e-07
 -9.272001e-07
 -1.641973e-08
 4.053962e-08
 -2.002236e-08
 -1.322437e-07
 -2.407122e-07
 -2.628308e-07
 -1.713653e-07
 -7.216487e-08
 -5.256896e-08
 -8.266549e-08
 -1.233792e-07
 -1.641501e-07
 -2.029238e-07
 -2.312820e-07
 -2.292944e-07
 -2.598369e-07
 1.716534e-05
 -4.058523e-07
 -5.700409e-07
 -7.955290e-07
 -9.123756e-07
 -8.485601e-07
 -6.083114e-07
 9.257395e-08
 -7.492542e-07
 -1.965148e-06
 -7.789398e-07
 -5.332589e-07
 -5.265742e-07
 -1.413425e-06
 4.426912e-08
 6.448865e-07
 -1.343421e-06
 -2.144702e-07
 6.890208e-07
 2.734765e-08
 -1.605421e-07
 -2.348384e-07
 -2.764536e-07
 -2.647029e-07
 -1.565333e-07
 0.000000e+00
 0.000000e+00
 4.584871e-09
 9.322413e-09
 1.536352e-08
 2.953584e-08
 -1.416029e-08
 1.747010e-05
 4.807473e-08
 3.200280e-08
 -2.264665e-08
 -4.083983e-08
 -9.790538e-08
 -1.975684e-07
 -3.525754e-07
 -4.116280e-07
 -1.415894e-07
 9.924522e-08
 4.223585e-08
 -5.985710e-08
 -1.269422e-07
 -1.771233e-07
 -2.192176e-07
 -2.267900e-07
 -7.898955e-08
 6.119139e-07
 -2.729028e-07
 -1.676692e-06
 -7.869507e-07
 -8.620585e-07
 -9.365510e-07
 -6.708372e-07
 -3.745833e-07
 -3.848394e-07
 -6.859309e-07
 -8.965271e-07
 -6.864692e-07
 -4.139306e-07
 -3.134862e-07
 -2.672788e-07
 1.748518e-05
 1.805699e-07
 -4.677123e-09
 1.727943e-05
 -2.634229e-07
 -2.963044e-07
 -3.428208e-07
 -3.488390e-07
 -4.353412e-07
 -5.037954e-07
 -2.668133e-07
 0.000000e+00
 0.000000e+00
 2.617214e-08
 6.107189e-08
 1.224811e-07
 2.666715e-07
 7.681308e-07
 -1.227944e-06
 -1.329863e-06
 5.345075e-07
 2.178939e-08
 -8.691067e-08
 -1.344515e-07
 -2.079647e-07
 -3.934251e-07
 -1.475134e-06
 -1.652064e-07
 7.408255e-07
 9.681693e-08
 -7.582254e-08
 -1.452333e-07
 -1.938341e-07
 -2.543530e-07
 -3.503267e-07
 -3.299645e-07
 -4.180590e-08
 -8.699917e-08
 -4.714955e-07
 -6.266730e-07
 -7.909455e-07
 -1.892177e-06
 -6.128617e-07
 2.530108e-07
 -4.789093e-07
 -8.048358e-07
 -8.586422e-07
 -4.794193e-07
 -9.706836e-08
 2.745221e-08
 -3.379791e-07
 9.478347e-08
 -2.325799e-07
 7.445250e-07
 -2.357807e-07
 -1.628195e-06
 -6.880109e-07
 -5.920782e-07
 -3.698591e-07
 -4.162683e-07
 -1.655999e-06
 -4.018954e-07
 0.000000e+00
 0.000000e+00
 4.017878e-08
 9.077830e-08
 1.662949e-07
 2.823786e-07
 3.558256e-07
 5.903265e-08
 1.718179e-05
 -3.041066e-07
 -1.963570e-07
 -1.656409e-07
 -1.447328e-07
 -1.349265e-07
 -1.225941e-07
 -1.579753e-07
 1.729369e-05
 -1.716185e-07
 -1.481112e-07
 -1.679414e-07
 -1.787740e-07
 -1.982520e-07
 -2.519018e-07
 -4.237733e-07
 -1.516902e-06
 -2.752114e-07
 5.203870e-07
 -1.700585e-07
 -3.154184e-07
 -3.654116e-07
 -4.613776e-07
 1.692839e-05
 -6.249227e-07
 -7.807201e-07
 -1.023211e-06
 -1.847856e-06
 -3.293455e-07
 6.226960e-07
 3.607402e-07
 4.920649e-07
 1.765323e-05
 -1.144226e-07
 -7.381931e-08
 -2.676462e-07
 -5.528011e-07
 -6.526502e-07
 -1.590927e-06
 -2.439637e-07
 5.431699e-07
 -1.223317e-06
 1.722011e-05
 0.000000e+00
 0.000000e+00
 4.448676e-08
 9.675482e-08
 1.652247e-07
 2.579480e-07
 4.047764e-07
 9.292294e-07
 -1.179904e-07
 -1.494971e-06
 -4.226068e-07
 -2.308399e-07
 -1.421881e-07
 -6.011316e-08
 1.131544e-07
 7.506860e-07
 -1.672994e-07
 -1.494125e-06
 -4.324760e-07
 -2.655600e-07
 -2.048649e-07
 -1.750971e-07
 -1.621612e-07
 -1.646198e-07
 -2.606541e-07
 1.704380e-05
 -5.151839e-07
 -2.662769e-07
 -4.109976e-08
 3.332109e-08
 5.560666e-07
 -4.311933e-07
 -1.827749e-06
 -9.338683e-07
 -1.824517e-06
 -4.944148e-07
 1.780743e-05
 -1.214862e-06
 2.205986e-07
 1.746800e-06
 1.406354e-07
 -1.397236e-06
 -4.001060e-07
 -2.935241e-07
 -2.787793e-07
 -1.962896e-07
 -1.085017e-07
 1.749105e-05
 2.771601e-07
 9.904237e-07
 1.768384e-05
 0.000000e+00
 0.000000e+00
 4.118235e-08
 8.649316e-08
 1.395088e-07
 2.028173e-07
 2.765425e-07
 2.731172e-07
 -3.864628e-08
 -3.641204e-07
 -3.442482e-07
 -2.192688e-07
 -1.326407e-07
 -5.062016e-08
 5.602593e-08
 1.105910e-07
 -1.406204e-07
 -4.321856e-07
 -4.064733e-07
 -2.873630e-07
 -2.072604e-07
 -1.369763e-07
 -5.498878e-08
 1.022085e-07
 6.755832e-07
 -4.344101e-07
 -2.861280e-06
 -5.038442e-07
 5.848527e-07
 7.140509e-08
 -2.547652e-08
 -3.074755e-07
 -5.756698e-07
 -4.658908e-07
 -1.913897e-07
 1.800900e-05
 -2.539354e-07
 -1.464971e-06
 1.718228e-05
 -3.763460e-08
 -1.895655e-07
 -4.468785e-07
 -3.848059e-07
 -2.422992e-07
 -1.037340e-07
 1.724051e-07
 9.584415e-07
 2.383960e-07
 -7.419785e-07
 1.141413e-06
 4.374593e-07
 0.000000e+00
 0.000000e+00
 3.366849e-08
 6.829853e-08
 1.035052e-07
 1.350143e-07
 1.467855e-07
 9.867335e-08
 -3.442432e-08
 -1.655183e-07
 -2.005176e-07
 -1.675797e-07
 -1.188295e-07
 -7.065548e-08
 -3.500617e-08
 -5.187489e-08
 -1.558961e-07
 -2.712665e-07
 -3.047676e-07
 -2.713471e-07
 -2.025874e-07
 -1.060365e-07
 3.618349e-09
 1.192206e-07
 1.625856e-07
 -9.898787e-08
 -4.447351e-07
 1.702190e-05
 -3.259945e-07
 -2.270928e-07
 -2.232884e-07
 -2.713965e-07
 -2.729283e-07
 -4.742902e-08
 7.674714e-07
 3.697956e-08
 -1.292601e-06
 1.914662e-07
 -4.879573e-07
 -1.664699e-06
 -5.918798e-07
 -3.998116e-07
 -2.672116e-07
 -1.795659e-07
 -5.336607e-08
 2.028566e-07
 4.436514e-07
 3.540729e-07
 2.425862e-07
 3.933227e-07
 3.077760e-07
 0.000000e+00
 0.000000e+00
 2.499238e-08
 4.898350e-08
 6.968584e-08
 8.177888e-08
 7.500185e-08
 3.706899e-08
 -2.962045e-08
 -9.410548e-08
 -1.251793e-07
 -1.227556e-07
 -1.040405e-07
 -8.427887e-08
 -7.751563e-08
 -9.973515e-08
 -1.552019e-07
 -2.207382e-07
 -2.686843e-07
 -2.839800e-07
 -2.297323e-07
 -8.592382e-08
 5.872744e-08
 1.253679e-07
 1.299685e-07
 1.554082e-07
 6.539093e-07
 -3.073685e-07
 -1.611660e-06
 -5.187574e-07
 -3.363645e-07
 -2.696189e-07
 -1.971746e-07
 -4.890138e-08
 9.665008e-08
 -5.736081e-08
 -2.844549e-07
 -2.655785e-07
 -4.367989e-07
 -7.466038e-07
 -7.269286e-07
 -3.491259e-07
 -7.454882e-08
 -1.509996e-07
 -1.727236e-07
 1.662401e-07
 4.594255e-07
 3.968011e-07
 2.864975e-07
 2.407897e-07
 1.542137e-07
 0.000000e+00
 0.000000e+00
 1.711647e-08
 3.247525e-08
 4.357198e-08
 4.657052e-08
 3.662479e-08
 1.074595e-08
 -2.680897e-08
 -6.323088e-08
 -8.616300e-08
 -9.309013e-08
 -9.004403e-08
 -8.585262e-08
 -8.944083e-08
 -1.080854e-07
 -1.436485e-07
 -1.927389e-07
 -2.588848e-07
 -3.648508e-07
 -3.749019e-07
 -6.283890e-08
 2.149156e-07
 1.922917e-07
 1.254054e-07
 1.117774e-07
 7.823970e-08
 -2.160158e-07
 -5.140903e-07
 -4.804903e-07
 -3.560102e-07
 -2.776113e-07
 -2.099639e-07
 -1.414047e-07
 -1.051740e-07
 -1.392850e-07
 -1.898052e-07
 -2.235437e-07
 -3.278808e-07
 -5.604534e-07
 -1.635505e-06
 -2.878179e-07
 6.351728e-07
 -9.512397e-08
 -1.246739e-06
 9.015200e-08
 1.029079e-06
 3.983408e-07
 2.273585e-07
 1.540708e-07
 8.565444e-08
 0.000000e+00
 0.000000e+00
 1.087183e-08
 1.998814e-08
 2.531447e-08
 2.450482e-08
 1.548642e-08
 -2.075895e-09
 -2.518452e-08
 -4.790742e-08
 -6.469384e-08
 -7.371491e-08
 -7.717857e-08
 -7.948386e-08
 -8.532741e-08
 -9.819437e-08
 -1.195886e-07
 -1.518430e-07
 -2.108463e-07
 -3.726534e-07
 -1.426073e-06
 -8.816747e-08
 8.432766e-07
 2.212076e-07
 6.627481e-08
 4.874641e-09
 -7.031753e-08
 -2.055337e-07
 -3.305700e-07
 -3.618673e-07
 -3.283103e-07
 -2.788541e-07
 -2.325880e-07
 -2.067899e-07
 -2.116647e-07
 -2.076106e-07
 -1.464280e-07
 -9.070824e-08
 -1.073006e-07
 -1.423395e-07
 -1.953919e-07
 1.727701e-05
 -1.363697e-07
 -3.132139e-08
 -9.956992e-09
 1.749859e-05
 7.095750e-08
 1.111220e-07
 9.249131e-08
 7.285663e-08
 4.157614e-08
 0.000000e+00
 0.000000e+00
 6.330198e-09
 1.122216e-08
 1.320936e-08
 1.092432e-08
 3.507265e-09
 -8.756283e-09
 -2.400724e-08
 -3.925105e-08
 -5.172812e-08
 -6.025089e-08
 -6.550942e-08
 -6.936896e-08
 -7.377259e-08
 -7.967455e-08
 -8.632167e-08
 -9.124224e-08
 -9.034029e-08
 -7.320852e-08
 -9.569328e-08
 1.737177e-05
 -7.888377e-08
 -4.531291e-08
 -6.340604e-08
 -8.558614e-08
 -1.313402e-07
 -2.014877e-07
 -2.699199e-07
 -3.077613e-07
 -3.087986e-07
 -2.782222e-07
 -2.353825e-07
 -2.305596e-07
 -3.204095e-07
 -3.621088e-07
 -9.887696e-08
 1.443823e-07
 1.339578e-07
 2.014854e-07
 7.959464e-07
 -1.081739e-07
 -1.344372e-06
 -4.890781e-08
 8.242773e-07
 8.856267e-09
 -1.274916e-06
 -2.003552e-07
 -3.815255e-08
 5.031245e-09
 9.594139e-09
 0.000000e+00
 0.000000e+00
 3.217740e-09
 5.368902e-09
 5.452668e-09
 2.670820e-09
 -3.336136e-09
 -1.222773e-08
 -2.287700e-08
 -3.365845e-08
 -4.306061e-08
 -5.025605e-08
 -5.525077e-08
 -5.853681e-08
 -6.041180e-08
 -6.010582e-08
 -5.458534e-08
 -3.592759e-08
 1.790548e-08
 1.831844e-07
 8.235200e-07
 -8.693815e-08
 -1.406555e-06
 -3.431660e-07
 -1.855950e-07
 -1.501600e-07
 -1.619587e-07
 -1.985836e-07
 -2.453985e-07
 -2.915423e-07
 -3.224343e-07
 -2.967958e-07
 -2.017866e-07
 -1.525850e-07
 -3.044843e-07
 -1.405935e-06
 -1.149366e-07
 8.097458e-07
 2.398387e-07
 1.888346e-07
 1.869652e-07
 -7.745155e-08
 -2.898850e-07
 -5.566965e-08
 2.197325e-07
 6.172137e-08
 -2.089531e-07
 -1.851030e-07
 -8.006796e-08
 -3.032443e-08
 -9.269740e-09
 0.000000e+00
 0.000000e+00
 1.180671e-09
 1.613564e-09
 6.333009e-10
 -2.236210e-09
 -7.152099e-09
 -1.384756e-08
 -2.163469e-08
 -2.957264e-08
 -3.675377e-08
 -4.255200e-08
 -4.667268e-08
 -4.894358e-08
 -4.888117e-08
 -4.506331e-08
 -3.420099e-08
 -9.502438e-09
 4.200932e-08
 1.363594e-07
 1.894064e-07
 -5.769291e-08
 -3.444347e-07
 -3.195114e-07
 -2.153648e-07
 -1.731018e-07
 -1.681232e-07
 -1.861709e-07
 -2.222260e-07
 -2.834637e-07
 -3.936709e-07
 -4.160075e-07
 -1.242627e-07
 1.251615e-07
 7.503017e-08
 -7.324645e-08
 1.731132e-05
 -1.394392e-07
 -4.199911e-09
 7.699219e-08
 2.986217e-08
 -1.797664e-07
 -3.003602e-07
 -1.610438e-08
 2.477209e-07
 1.386054e-07
 -2.895239e-08
 -8.383503e-08
 -6.719448e-08
 -3.910233e-08
 -1.710064e-08
 0.000000e+00
 0.000000e+00
 -9.569011e-11
 -6.979356e-10
 -2.243185e-09
 -5.023117e-09
 -9.113176e-09
 -1.432965e-08
 -2.024811e-08
 -2.629667e-08
 -3.189279e-08
 -3.655214e-08
 -3.989729e-08
 -4.153412e-08
 -4.081260e-08
 -3.652143e-08
 -2.661883e-08
 -8.385297e-09
 1.926817e-08
 4.519230e-08
 2.732554e-08
 -7.135857e-08
 -1.781822e-07
 -2.061303e-07
 -1.835130e-07
 -1.609558e-07
 -1.525527e-07
 -1.576281e-07
 -1.772653e-07
 -2.275719e-07
 -3.841308e-07
 -1.433363e-06
 -8.609440e-08
 8.790653e-07
 3.866041e-07
 8.105857e-07
 -2.627808e-07
 -1.626384e-06
 -2.794995e-07
 1.189034e-07
 5.893821e-08
 -2.055599e-07
 -1.337309e-06
 -4.293083e-08
 8.569991e-07
 1.943673e-07
 4.899960e-09
 -5.290234e-08
 -5.597062e-08
 -3.965604e-08
 -1.963599e-08
 0.000000e+00
 0.000000e+00
 -8.540003e-10
 -2.042308e-09
 -3.848207e-09
 -6.454912e-09
 -9.905401e-09
 -1.408376e-08
 -1.873044e-08
 -2.349250e-08
 -2.799030e-08
 -3.186706e-08
 -3.478952e-08
 -3.638928e-08
 -3.616804e-08
 -3.343682e-08
 -2.745218e-08
 -1.813449e-08
 -8.111733e-09
 -6.177505e-09
 -2.656070e-08
 -7.269601e-08
 -1.206000e-07
 -1.436505e-07
 -1.427772e-07
 -1.330832e-07
 -1.238489e-07
 -1.164741e-07
 -1.085111e-07
 -9.544841e-08
 -6.579655e-08
 -7.275233e-08
 1.741907e-05
 1.301135e-08
 1.234060e-07
 1.148068e-07
 -2.929091e-07
 -1.634855e-06
 -2.755937e-07
 7.564080e-07
 1.766446e-07
 4.572878e-08
 -3.437774e-08
 1.740355e-05
 -6.680262e-08
 -4.881856e-08
 -7.136367e-08
 -7.254818e-08
 -6.072077e-08
 -4.203237e-08
 -2.113961e-08
 0.000000e+00
 0.000000e+00
 -1.269470e-09
 -2.752198e-09
 -4.628456e-09
 -7.015444e-09
 -9.944746e-09
 -1.335343e-08
 -1.709343e-08
 -2.095787e-08
 -2.471457e-08
 -2.813162e-08
 -3.098222e-08
 -3.302910e-08
 -3.401029e-08
 -3.368026e-08
 -3.200706e-08
 -2.966782e-08
 -2.886389e-08
 -3.374297e-08
 -4.838749e-08
 -7.156285e-08
 -9.434770e-08
 -1.074417e-07
 -1.091717e-07
 -1.033421e-07
 -9.273059e-08
 -7.569037e-08
 -4.422013e-08
 2.430010e-08
 2.069657e-07
 8.688343e-07
 -1.342667e-08
 -1.296110e-06
 -1.952448e-07
 -3.546501e-08
 -5.491299e-08
 -1.559524e-07
 1.730345e-05
 -9.714107e-08
 2.068038e-08
 1.896683e-07
 8.334312e-07
 -7.699637e-08
 -1.397730e-06
 -3.331535e-07
 -1.660633e-07
 -1.054644e-07
 -7.202468e-08
 -4.608925e-08
 -2.259338e-08
 0.000000e+00
 0.000000e+00
 -1.466110e-09
 -3.057848e-09
 -4.883321e-09
 -7.017371e-09
 -9.490002e-09
 -1.228176e-08
 -1.532802e-08
 -1.853163e-08
 -2.178002e-08
 -2.496099e-08
 -2.797321e-08
 -3.073329e-08
 -3.319089e-08
 -3.537325e-08
 -3.748442e-08
 -4.005785e-08
 -4.405485e-08
 -5.059856e-08
 -6.002238e-08
 -7.072223e-08
 -7.946018e-08
 -8.362654e-08
 -8.281029e-08
 -7.758790e-08
 -6.711248e-08
 -4.749089e-08
 -1.067187e-08
 5.730370e-08
 1.725783e-07
 2.505458e-07
 3.217192e-08
 -2.218670e-07
 -1.600642e-07
 -4.583289e-09
 1.800044e-07
 8.103267e-07
 -9.327138e-08
 -1.374950e-06
 -2.396387e-07
 3.495552e-08
 1.515541e-07
 -6.833433e-08
 -3.406273e-07
 -3.040102e-07
 -1.844554e-07
 -1.181415e-07
 -7.763810e-08
 -4.812128e-08
 -2.319962e-08
 0.000000e+00
 0.000000e+00
 -1.534155e-09
 -3.124108e-09
 -4.821939e-09
 -6.672215e-09
 -8.708357e-09
 -1.095002e-08
 -1.340272e-08
 -1.606087e-08
 -1.891484e-08
 -2.196193e-08
 -2.522105e-08
 -2.875132e-08
 -3.267424e-08
 -3.719275e-08
 -4.258019e-08
 -4.907412e-08
 -5.658113e-08
 -6.420624e-08
 -7.003293e-08
 -7.197057e-08
 -6.961260e-08
 -6.499219e-08
 -6.058154e-08
 -5.655933e-08
 -4.997733e-08
 -3.551091e-08
 -6.947209e-09
 3.888185e-08
 8.992225e-08
 1.005995e-07
 3.071964e-08
 -4.710653e-08
 -4.162025e-08
 3.065893e-08
 1.395756e-07
 1.992230e-07
 -3.493074e-08
 -2.938253e-07
 -2.260401e-07
 -7.672537e-08
 -2.839410e-08
 -9.149836e-08
 -1.770551e-07
 -1.890462e-07
 -1.502265e-07
 -1.076767e-07
 -7.357805e-08
 -4.606948e-08
 -2.224375e-08
 0.000000e+00
 0.000000e+00
 -1.545789e-09
 -3.081232e-09
 -4.606231e-09
 -6.138835e-09
 -7.718732e-09
 -9.405287e-09
 -1.127120e-08
 -1.339534e-08
 -1.586002e-08
 -1.875742e-08
 -2.220816e-08
 -2.639089e-08
 -3.157618e-08
 -3.814289e-08
 -4.652123e-08
 -5.693982e-08
 -6.878595e-08
 -7.954175e-08
 -8.424424e-08
 -7.802237e-08
 -6.212418e-08
 -4.569231e-08
 -3.739719e-08
 -3.768799e-08
 -4.052766e-08
 -3.793831e-08
 -2.249128e-08
 8.350171e-09
 4.370629e-08
 5.918172e-08
 4.205530e-08
 1.565148e-08
 1.217083e-08
 3.575753e-08
 6.454919e-08
 5.226845e-08
 -3.578155e-08
 -1.249722e-07
 -1.309069e-07
 -9.144885e-08
 -7.180588e-08
 -8.915216e-08
 -1.173455e-07
 -1.255349e-07
 -1.111889e-07
 -8.737389e-08
 -6.297091e-08
 -4.050381e-08
 -1.979336e-08
 0.000000e+00
 0.000000e+00
 -1.569542e-09
 -3.051953e-09
 -4.386684e-09
 -5.561578e-09
 -6.624703e-09
 -7.682101e-09
 -8.881740e-09
 -1.039060e-08
 -1.237686e-08
 -1.500907e-08
 -1.847891e-08
 -2.304771e-08
 -2.911023e-08
 -3.725874e-08
 -4.829757e-08
 -6.305701e-08
 -8.158419e-08
 -1.007942e-07
 -1.105143e-07
 -9.546840e-08
 -5.505799e-08
 -1.651141e-08
 -4.494225e-09
 -1.605657e-08
 -3.654371e-08
 -5.383698e-08
 -5.583056e-08
 -2.989601e-08
 1.905555e-08
 5.850167e-08
 6.448609e-08
 4.895561e-08
 3.514321e-08
 3.118070e-08
 2.781343e-08
 8.261198e-09
 -3.209676e-08
 -7.036489e-08
 -8.286232e-08
 -7.592823e-08
 -7.021510e-08
 -7.512482e-08
 -8.428055e-08
 -8.715039e-08
 -8.021241e-08
 -6.651468e-08
 -5.005619e-08
 -3.310967e-08
 -1.642448e-08
 0.000000e+00
 0.000000e+00
 -1.684984e-09
 -3.178700e-09
 -4.337425e-09
 -5.106170e-09
 -5.543604e-09
 -5.819701e-09
 -6.182766e-09
 -6.907809e-09
 -8.250941e-09
 -1.043418e-08
 -1.367282e-08
 -1.824470e-08
 -2.459806e-08
 -3.350329e-08
 -4.626353e-08
 -6.496329e-08
 -9.243005e-08
 -1.299702e-07
 -1.639811e-07
 -1.448001e-07
 -4.543960e-08
 4.552933e-08
 5.359348e-08
 1.345323e-08
 -3.570933e-08
 -8.417896e-08
 -1.200453e-07
 -9.776575e-08
 5.672325e-09
 9.940782e-08
 1.100748e-07
 7.713109e-08
 4.516384e-08
 2.444020e-08
 9.112720e-09
 -8.612939e-09
 -3.014510e-08
 -4.849721e-08
 -5.675023e-08
 -5.652730e-08
 -5.488729e-08
 -5.618885e-08
 -5.911097e-08
 -5.980825e-08
 -5.601776e-08
 -4.804401e-08
 -3.737008e-08
 -2.534071e-08
 -1.275825e-08
 0.000000e+00
 0.000000e+00
 -1.999774e-09
 -3.655667e-09
 -4.697881e-09
 -5.001555e-09
 -4.637484e-09
 -3.874617e-09
 -3.117751e-09
 -2.799999e-09
 -3.282616e-09
 -4.813290e-09
 -7.560723e-09
 -1.171223e-08
 -1.762093e-08
 -2.602600e-08
 -3.845165e-08
 -5.806579e-08
 -9.166682e-08
 -1.539460e-07
 -2.710340e-07
 -3.041391e-07
 -2.328236e-08
 2.177711e-07
 1.557668e-07
 4.564598e-08
 -3.555848e-08
 -1.186274e-07
 -2.427705e-07
 -2.763625e-07