<VTKFile type="UnstructuredGrid"  version="0.1"   >
<UnstructuredGrid>  
<Piece  NumberOfPoints="     2601"  NumberOfCells="     5000">  
<Points>  
<DataArray  type="Float64"  NumberOfComponents="3"  format="ascii">  
 0.000000 0.000000 0.000000 
 0.020000 0.000000 0.000000 
 0.040000 0.000000 0.000000 
 0.060000 0.000000 0.000000 
 0.080000 0.000000 0.000000 
 0.100000 0.000000 0.000000 
 0.120000 0.000000 0.000000 
 0.140000 0.000000 0.000000 
 0.160000 0.000000 0.000000 
 0.180000 0.000000 0.000000 
 0.200000 0.000000 0.000000 
 0.220000 0.000000 0.000000 
 0.240000 0.000000 0.000000 
 0.260000 0.000000 0.000000 
 0.280000 0.000000 0.000000 
 0.300000 0.000000 0.000000 
 0.320000 0.000000 0.000000 
 0.340000 0.000000 0.000000 
 0.360000 0.000000 0.000000 
 0.380000 0.000000 0.000000 
 0.400000 0.000000 0.000000 
 0.420000 0.000000 0.000000 
 0.440000 0.000000 0.000000 
 0.460000 0.000000 0.000000 
 0.480000 0.000000 0.000000 
 0.500000 0.000000 0.000000 
 0.520000 0.000000 0.000000 
 0.540000 0.000000 0.000000 
 0.560000 0.000000 0.000000 
 0.580000 0.000000 0.000000 
 0.600000 0.000000 0.000000 
 0.620000 0.000000 0.000000 
 0.640000 0.000000 0.000000 
 0.660000 0.000000 0.000000 
 0.680000 0.000000 0.000000 
 0.700000 0.000000 0.000000 
 0.720000 0.000000 0.000000 
 0.740000 0.000000 0.000000 
 0.760000 0.000000 0.000000 
 0.780000 0.000000 0.000000 
 0.800000 0.000000 0.000000 
 0.820000 0.000000 0.000000 
 0.840000 0.000000 0.000000 
 0.860000 0.000000 0.000000 
 0.880000 0.000000 0.000000 
 0.900000 0.000000 0.000000 
 0.920000 0.000000 0.000000 
 0.940000 0.000000 0.000000 
 0.960000 0.000000 0.000000 
 0.980000 0.000000 0.000000 
 1.000000 0.000000 0.000000 
 0.000000 0.020000 0.000000 
 0.020000 0.020000 0.000000 
 0.040000 0.020000 0.000000 
 0.060000 0.020000 0.000000 
 0.080000 0.020000 0.000000 
 0.100000 0.020000 0.000000 
 0.120000 0.020000 0.000000 
 0.140000 0.020000 0.000000 
 0.160000 0.020000 0.000000 
 0.180000 0.020000 0.000000 
 0.200000 0.020000 0.000000 
 0.220000 0.020000 0.000000 
 0.240000 0.020000 0.000000 
 0.260000 0.020000 0.000000 
 0.280000 0.020000 0.000000 
 0.300000 0.020000 0.000000 
 0.320000 0.020000 0.000000 
 0.340000 0.020000 0.000000 
 0.360000 0.020000 0.000000 
 0.380000 0.020000 0.000000 
 0.400000 0.020000 0.000000 
 0.420000 0.020000 0.000000 
 0.440000 0.020000 0.000000 
 0.460000 0.020000 0.000000 
 0.480000 0.020000 0.000000 
 0.500000 0.020000 0.000000 
 0.520000 0.020000 0.000000 
 0.540000 0.020000 0.000000 
 0.560000 0.020000 0.000000 
 0.580000 0.020000 0.000000 
 0.600000 0.020000 0.000000 
 0.620000 0.020000 0.000000 
 0.640000 0.020000 0.000000 
 0.660000 0.020000 0.000000 
 0.680000 0.020000 0.000000 
 0.700000 0.020000 0.000000 
 0.720000 0.020000 0.000000 
 0.740000 0.020000 0.000000 
 0.760000 0.020000 0.000000 
 0.780000 0.020000 0.000000 
 0.800000 0.020000 0.000000 
 0.820000 0.020000 0.000000 
 0.840000 0.020000 0.000000 
 0.860000 0.020000 0.000000 
 0.880000 0.020000 0.000000 
 0.900000 0.020000 0.000000 
 0.920000 0.020000 0.000000 
 0.940000 0.020000 0.000000 
 0.960000 0.020000 0.000000 
 0.980000 0.020000 0.000000 
 1.000000 0.020000 0.000000 
 0.000000 0.040000 0.000000 
 0.020000 0.040000 0.000000 
 0.040000 0.040000 0.000000 
 0.060000 0.040000 0.000000 
 0.080000 0.040000 0.000000 
 0.100000 0.040000 0.000000 
 0.120000 0.040000 0.000000 
 0.140000 0.040000 0.000000 
 0.160000 0.040000 0.000000 
 0.180000 0.040000 0.000000 
 0.200000 0.040000 0.000000 
 0.220000 0.040000 0.000000 
 0.240000 0.040000 0.000000 
 0.260000 0.040000 0.000000 
 0.280000 0.040000 0.000000 
 0.300000 0.040000 0.000000 
 0.320000 0.040000 0.000000 
 0.340000 0.040000 0.000000 
 0.360000 0.040000 0.000000 
 0.380000 0.040000 0.000000 
 0.400000 0.040000 0.000000 
 0.420000 0.040000 0.000000 
 0.440000 0.040000 0.000000 
 0.460000 0.040000 0.000000 
 0.480000 0.040000 0.000000 
 0.500000 0.040000 0.000000 
 0.520000 0.040000 0.000000 
 0.540000 0.040000 0.000000 
 0.560000 0.040000 0.000000 
 0.580000 0.040000 0.000000 
 0.600000 0.040000 0.000000 
 0.620000 0.040000 0.000000 
 0.640000 0.040000 0.000000 
 0.660000 0.040000 0.000000 
 0.680000 0.040000 0.000000 
 0.700000 0.040000 0.000000 
 0.720000 0.040000 0.000000 
 0.740000 0.040000 0.000000 
 0.760000 0.040000 0.000000 
 0.780000 0.040000 0.000000 
 0.800000 0.040000 0.000000 
 0.820000 0.040000 0.000000 
 0.840000 0.040000 0.000000 
 0.860000 0.040000 0.000000 
 0.880000 0.040000 0.000000 
 0.900000 0.040000 0.000000 
 0.920000 0.040000 0.000000 
 0.940000 0.040000 0.000000 
 0.960000 0.040000 0.000000 
 0.980000 0.040000 0.000000 
 1.000000 0.040000 0.000000 
 0.000000 0.060000 0.000000 
 0.020000 0.060000 0.000000 
 0.040000 0.060000 0.000000 
 0.060000 0.060000 0.000000 
 0.080000 0.060000 0.000000 
 0.100000 0.060000 0.000000 
 0.120000 0.060000 0.000000 
 0.140000 0.060000 0.000000 
 0.160000 0.060000 0.000000 
 0.180000 0.060000 0.000000 
 0.200000 0.060000 0.000000 
 0.220000 0.060000 0.000000 
 0.240000 0.060000 0.000000 
 0.260000 0.060000 0.000000 
 0.280000 0.060000 0.000000 
 0.300000 0.060000 0.000000 
 0.320000 0.060000 0.000000 
 0.340000 0.060000 0.000000 
 0.360000 0.060000 0.000000 
 0.380000 0.060000 0.000000 
 0.400000 0.060000 0.000000 
 0.420000 0.060000 0.000000 
 0.440000 0.060000 0.000000 
 0.460000 0.060000 0.000000 
 0.480000 0.060000 0.000000 
 0.500000 0.060000 0.000000 
 0.520000 0.060000 0.000000 
 0.540000 0.060000 0.000000 
 0.560000 0.060000 0.000000 
 0.580000 0.060000 0.000000 
 0.600000 0.060000 0.000000 
 0.620000 0.060000 0.000000 
 0.640000 0.060000 0.000000 
 0.660000 0.060000 0.000000 
 0.680000 0.060000 0.000000 
 0.700000 0.060000 0.000000 
 0.720000 0.060000 0.000000 
 0.740000 0.060000 0.000000 
 0.760000 0.060000 0.000000 
 0.780000 0.060000 0.000000 
 0.800000 0.060000 0.000000 
 0.820000 0.060000 0.000000 
 0.840000 0.060000 0.000000 
 0.860000 0.060000 0.000000 
 0.880000 0.060000 0.000000 
 0.900000 0.060000 0.000000 
 0.920000 0.060000 0.000000 
 0.940000 0.060000 0.000000 
 0.960000 0.060000 0.000000 
 0.980000 0.060000 0.000000 
 1.000000 0.060000 0.000000 
 0.000000 0.080000 0.000000 
 0.020000 0.080000 0.000000 
 0.040000 0.080000 0.000000 
 0.060000 0.080000 0.000000 
 0.080000 0.080000 0.000000 
 0.100000 0.080000 0.000000 
 0.120000 0.080000 0.000000 
 0.140000 0.080000 0.000000 
 0.160000 0.080000 0.000000 
 0.180000 0.080000 0.000000 
 0.200000 0.080000 0.000000 
 0.220000 0.080000 0.000000 
 0.240000 0.080000 0.000000 
 0.260000 0.080000 0.000000 
 0.280000 0.080000 0.000000 
 0.300000 0.080000 0.000000 
 0.320000 0.080000 0.000000 
 0.340000 0.080000 0.000000 
 0.360000 0.080000 0.000000 
 0.380000 0.080000 0.000000 
 0.400000 0.080000 0.000000 
 0.420000 0.080000 0.000000 
 0.440000 0.080000 0.000000 
 0.460000 0.080000 0.000000 
 0.480000 0.080000 0.000000 
 0.500000 0.080000 0.000000 
 0.520000 0.080000 0.000000 
 0.540000 0.080000 0.000000 
 0.560000 0.080000 0.000000 
 0.580000 0.080000 0.000000 
 0.600000 0.080000 0.000000 
 0.620000 0.080000 0.000000 
 0.640000 0.080000 0.000000 
 0.660000 0.080000 0.000000 
 0.680000 0.080000 0.000000 
 0.700000 0.080000 0.000000 
 0.720000 0.080000 0.000000 
 0.740000 0.080000 0.000000 
 0.760000 0.080000 0.000000 
 0.780000 0.080000 0.000000 
 0.800000 0.080000 0.000000 
 0.820000 0.080000 0.000000 
 0.840000 0.080000 0.000000 
 0.860000 0.080000 0.000000 
 0.880000 0.080000 0.000000 
 0.900000 0.080000 0.000000 
 0.920000 0.080000 0.000000 
 0.940000 0.080000 0.000000 
 0.960000 0.080000 0.000000 
 0.980000 0.080000 0.000000 
 1.000000 0.080000 0.000000 
 0.000000 0.100000 0.000000 
 0.020000 0.100000 0.000000 
 0.040000 0.100000 0.000000 
 0.060000 0.100000 0.000000 
 0.080000 0.100000 0.000000 
 0.100000 0.100000 0.000000 
 0.120000 0.100000 0.000000 
 0.140000 0.100000 0.000000 
 0.160000 0.100000 0.000000 
 0.180000 0.100000 0.000000 
 0.200000 0.100000 0.000000 
 0.220000 0.100000 0.000000 
 0.240000 0.100000 0.000000 
 0.260000 0.100000 0.000000 
 0.280000 0.100000 0.000000 
 0.300000 0.100000 0.000000 
 0.320000 0.100000 0.000000 
 0.340000 0.100000 0.000000 
 0.360000 0.100000 0.000000 
 0.380000 0.100000 0.000000 
 0.400000 0.100000 0.000000 
 0.420000 0.100000 0.000000 
 0.440000 0.100000 0.000000 
 0.460000 0.100000 0.000000 
 0.480000 0.100000 0.000000 
 0.500000 0.100000 0.000000 
 0.520000 0.100000 0.000000 
 0.540000 0.100000 0.000000 
 0.560000 0.100000 0.000000 
 0.580000 0.100000 0.000000 
 0.600000 0.100000 0.000000 
 0.620000 0.100000 0.000000 
 0.640000 0.100000 0.000000 
 0.660000 0.100000 0.000000 
 0.680000 0.100000 0.000000 
 0.700000 0.100000 0.000000 
 0.720000 0.100000 0.000000 
 0.740000 0.100000 0.000000 
 0.760000 0.100000 0.000000 
 0.780000 0.100000 0.000000 
 0.800000 0.100000 0.000000 
 0.820000 0.100000 0.000000 
 0.840000 0.100000 0.000000 
 0.860000 0.100000 0.000000 
 0.880000 0.100000 0.000000 
 0.900000 0.100000 0.000000 
 0.920000 0.100000 0.000000 
 0.940000 0.100000 0.000000 
 0.960000 0.100000 0.000000 
 0.980000 0.100000 0.000000 
 1.000000 0.100000 0.000000 
 0.000000 0.120000 0.000000 
 0.020000 0.120000 0.000000 
 0.040000 0.120000 0.000000 
 0.060000 0.120000 0.000000 
 0.080000 0.120000 0.000000 
 0.100000 0.120000 0.000000 
 0.120000 0.120000 0.000000 
 0.140000 0.120000 0.000000 
 0.160000 0.120000 0.000000 
 0.180000 0.120000 0.000000 
 0.200000 0.120000 0.000000 
 0.220000 0.120000 0.000000 
 0.240000 0.120000 0.000000 
 0.260000 0.120000 0.000000 
 0.280000 0.120000 0.000000 
 0.300000 0.120000 0.000000 
 0.320000 0.120000 0.000000 
 0.340000 0.120000 0.000000 
 0.360000 0.120000 0.000000 
 0.380000 0.120000 0.000000 
 0.400000 0.120000 0.000000 
 0.420000 0.120000 0.000000 
 0.440000 0.120000 0.000000 
 0.460000 0.120000 0.000000 
 0.480000 0.120000 0.000000 
 0.500000 0.120000 0.000000 
 0.520000 0.120000 0.000000 
 0.540000 0.120000 0.000000 
 0.560000 0.120000 0.000000 
 0.580000 0.120000 0.000000 
 0.600000 0.120000 0.000000 
[...]
<PointData  Scalars="U"> 
<DataArray  type="Float64"  Name="U"  format="ascii"> 
 0.000000e+00
 0.000000e+00
 0.000000e+00
 0.000000e+00
 0.000000e+00
 0.000000e+00
 0.000000e+00
 0.000000e+00
 0.000000e+00
 0.000000e+00
 0.000000e+00
 0.000000e+00
 0.000000e+00
 0.000000e+00
 0.000000e+00
 0.000000e+00
 0.000000e+00
 0.000000e+00
 0.000000e+00
 0.000000e+00
 0.000000e+00
 0.000000e+00
 0.000000e+00
 0.000000e+00
 0.000000e+00
 0.000000e+00
 0.000000e+00
 0.000000e+00
 0.000000e+00
 0.000000e+00
 0.000000e+00
 0.000000e+00
 0.000000e+00
 0.000000e+00
 0.000000e+00
 0.000000e+00
 0.000000e+00
 0.000000e+00
 0.000000e+00
 0.000000e+00
 0.000000e+00
 0.000000e+00
 0.000000e+00
 0.000000e+00
 0.000000e+00
 0.000000e+00
 0.000000e+00
 0.000000e+00
 0.000000e+00
 0.000000e+00
 0.000000e+00
 0.000000e+00
 1.534190e-09
 3.057954e-09
 4.542361e-09
 5.939732e-09
 7.204825e-09
 8.324279e-09
 9.337271e-09
 1.034009e-08
 1.148041e-08
 1.295449e-08
 1.502140e-08
 1.804935e-08
 2.261866e-08
 2.973545e-08
 4.128792e-08
 6.107671e-08
 9.725995e-08
 1.681296e-07
 3.125353e-07
 3.435679e-07
 1.757879e-05
 7.050831e-10
 8.064818e-08
 1.732496e-05
 -3.613121e-07
 -3.311037e-07
 -2.188131e-07
 2.193065e-07
 4.537546e-07
 1.746379e-05
 -1.379294e-06
 -6.043336e-08
 9.412156e-07
 3.224453e-07
 1.737500e-05
 -3.501441e-07
 -2.668466e-07
 -1.811771e-07
 -1.243321e-07
 -9.020228e-08
 -6.866442e-08
 -5.410150e-08
 -4.302298e-08
 -3.294185e-08
 -2.266522e-08
 -1.267847e-08
 -4.631791e-09
 -3.992438e-12
 1.014183e-09
 0.000000e+00
 0.000000e+00
 3.075135e-09
 6.151455e-09
 9.171916e-09
 1.201735e-08
 1.456456e-08
 1.676486e-08
 1.869320e-08
 2.055029e-08
 2.263666e-08
 2.533290e-08
 2.911432e-08
 3.462235e-08
 4.282299e-08
 5.531976e-08
 7.498068e-08
 1.072673e-07
 1.632929e-07
 2.679345e-07
 4.883807e-07
 1.149125e-06
 2.211600e-07
 -1.001640e-06
 6.617314e-07
 -1.683355e-07
 -1.533102e-06
 -5.676111e-07
 -1.331360e-06
 2.973100e-07
 1.921818e-06
 3.581160e-07
 -1.209615e-06
 1.728103e-05
 1.291226e-07
 8.120738e-07
 -1.933840e-07
 -1.594356e-06
 -5.313670e-07
 -3.251575e-07
 -2.268304e-07
 -1.686457e-07
 -1.306462e-07
 -1.048426e-07
 -8.526358e-08
 -6.638935e-08
 -4.526319e-08
 -2.338090e-08
 -5.594637e-09
 3.853480e-09
 4.571299e-09
 0.000000e+00
 0.000000e+00
 4.603422e-09
 9.288472e-09
 1.397522e-08
 1.840662e-08
 2.229334e-08
 2.549917e-08
 2.813684e-08
 3.054353e-08
 3.319730e-08
 3.665156e-08
 4.153083e-08
 4.860116e-08
 5.892479e-08
 7.413155e-08
 9.688119e-08
 1.316454e-07
 1.859330e-07
 2.714279e-07
 3.980379e-07
 4.739591e-07
 2.515238e-07
 2.708995e-08
 8.015885e-08
 -8.145899e-08
 -3.214150e-07
 -2.330743e-07
 -6.945752e-08
 1.761863e-05
 4.004763e-07
 4.293322e-07
 7.660719e-07
 -1.286954e-07
 -1.295494e-06
 -1.728492e-07
 -2.872545e-07
 -5.556644e-07
 -5.191082e-07
 -3.851495e-07
 -2.947665e-07
 -2.284712e-07
 -1.805513e-07
 -1.493330e-07
 -1.272370e-07
 -1.029271e-07
 -6.927908e-08
 -2.985830e-08
 2.536541e-09
 1.713871e-08
 1.370515e-08
 0.000000e+00
 0.000000e+00
 6.018369e-09
 1.238908e-08
 1.902733e-08
 2.536914e-08
 3.074832e-08
 3.484072e-08
 3.783422e-08
 4.030038e-08
 4.296725e-08
 4.656653e-08
 5.180261e-08
 5.941624e-08
 7.030646e-08
 8.568889e-08
 1.072622e-07
 1.372683e-07
 1.779733e-07
 2.288325e-07
 2.759590e-07
 2.759593e-07
 1.950996e-07
 1.044632e-07
 5.911738e-08
 2.770333e-09
 -2.297470e-08
 1.206477e-07
 7.439612e-07
 -9.878779e-08
 -1.080005e-06
 2.271283e-07
 2.806105e-07
 -3.137262e-08
 -3.216494e-07
 -3.286675e-07
 -3.403698e-07
 -4.184036e-07
 -4.383472e-07
 -4.021360e-07
 -3.417719e-07
 -2.704989e-07
 -2.123261e-07
 -1.839330e-07
 -1.721679e-07
 -1.508098e-07
 -1.009855e-07
 -2.886552e-08
 3.063307e-08
 4.984838e-08
 3.339028e-08
 0.000000e+00
 0.000000e+00
 6.995093e-09
 1.512852e-08
 2.435709e-08
 3.336081e-08
 4.058488e-08
 4.534755e-08
 4.808229e-08
 4.985337e-08
 5.179761e-08
 5.484924e-08
 5.972224e-08
 6.700694e-08
 7.727816e-08
 9.115729e-08
 1.092634e-07
 1.319033e-07
 1.581520e-07
 1.837459e-07
 1.981020e-07
 1.863198e-07
 1.461733e-07
 1.021438e-07
 7.760458e-08
 7.458520e-08
 1.019827e-07
 1.645113e-07
 9.214938e-08
 -1.182382e-06
 -1.330682e-07
 7.846514e-07
 1.840640e-07
 -5.664390e-08
 -2.099149e-07
 -2.796682e-07
 -3.225404e-07
 -3.717507e-07
 -4.146396e-07
 -4.372293e-07
 -4.042140e-07
 -2.981260e-07
 -2.076664e-07
 -1.999925e-07
 -2.279264e-07
 -2.314812e-07
 -1.615068e-07
 -1.359770e-08
 1.061725e-07
 1.202112e-07
 6.906038e-08
 0.000000e+00
 0.000000e+00
 6.600863e-09
 1.652178e-08
 2.987172e-08
 4.330827e-08
 5.309133e-08
 5.798736e-08
 5.929619e-08
 5.919192e-08
 5.948098e-08
 6.128991e-08
 6.522884e-08
 7.162163e-08
 8.064791e-08
 9.236199e-08
 1.065593e-07
 1.224210e-07
 1.378515e-07
 1.486229e-07
 1.482976e-07
 1.313353e-07
 1.007606e-07
 7.441437e-08
 7.727618e-08
 1.179536e-07
 1.770405e-07
 2.256326e-07
 2.305508e-07
 1.022630e-07
 1.744096e-05
 -7.820418e-08
 -8.155220e-08
 -1.445349e-07
 -2.032532e-07
 -2.488645e-07
 -2.881432e-07
 -3.351453e-07
 -4.052382e-07
 -5.268452e-07
 -5.678895e-07
 -3.047339e-07
 -9.207881e-08
 -1.840690e-07
 -3.088984e-07
 -3.895567e-07
 -3.283727e-07
 3.684348e-08
 3.161967e-07
 2.518508e-07
 1.162756e-07
 0.000000e+00
 0.000000e+00
 2.256556e-09
 1.379502e-08
 3.524230e-08
 5.743230e-08
 7.095651e-08
 7.433788e-08
 7.183176e-08
 6.801166e-08
 6.555795e-08
 6.555582e-08
 6.826091e-08
 7.358593e-08
 8.129271e-08
 9.099014e-08
 1.019869e-07
 1.130021e-07
 1.217535e-07
 1.245799e-07
 1.165519e-07
 9.285755e-08
 5.293599e-08
 1.445425e-08
 3.303436e-08
 1.423128e-07
 2.615917e-07
 3.307580e-07
 4.454849e-07
 1.002676e-06
 6.802667e-09
 -1.376885e-06
 -3.572527e-07
 -2.317887e-07
 -2.146428e-07
 -2.251341e-07
 -2.453961e-07
 -2.785269e-07
 -3.456929e-07
 -5.279645e-07
 -1.619071e-06
 -3.416823e-07
 5.020456e-07
 -2.240806e-07
 -4.476310e-07
 -5.256818e-07
 -1.376332e-06
 9.884898e-08
 1.042902e-06
 3.673952e-07
 1.385654e-07
 0.000000e+00
 0.000000e+00
 -1.302356e-08
 -8.799605e-10
 3.988875e-08
 8.194475e-08
 9.998687e-08
 9.649631e-08
 8.529550e-08
 7.519458e-08
 6.905577e-08
 6.706568e-08
 6.865298e-08
 7.314679e-08
 7.990076e-08
 8.822473e-08
 9.722965e-08
 1.056052e-07
 1.113346e-07
 1.113490e-07
 1.010044e-07
 7.277302e-08
 1.270378e-08
 -1.029075e-07
 -1.315646e-07
 1.613121e-07
 4.279373e-07
 4.147410e-07
 3.898309e-07
 3.517989e-07
 3.344083e-08
 -3.072450e-07
 -3.202832e-07
 -2.397009e-07
 -2.061611e-07
 -1.944063e-07
 -1.918860e-07
 -1.947448e-07
 -2.013551e-07
 -2.047846e-07
 -2.659006e-07
 1.713536e-05
 -4.288578e-07
 -5.921839e-07
 -7.644230e-07
 -4.944759e-07
 5.337582e-08
 1.779453e-05
 2.773579e-07
 2.022953e-07
 9.561972e-08
 0.000000e+00
 0.000000e+00
 -5.716381e-08
 -5.111741e-08
 4.389455e-08
 1.368586e-07
 1.521355e-07
 1.249765e-07
 9.661572e-08
 7.803048e-08
 6.831257e-08
 6.499423e-08
 6.614696e-08
 7.044225e-08
 7.690752e-08
 8.470996e-08
 9.298549e-08
 1.006818e-07
 1.063849e-07
 1.080584e-07
 1.023809e-07
 8.237346e-08
 2.783476e-08
 -1.381549e-07
 -1.201709e-06
 1.245078e-07
 1.047218e-06
 4.217178e-07
 2.595498e-07
 1.551688e-07
 -3.241010e-10
 -1.496068e-07
 -2.074559e-07
 -2.007653e-07
 -1.786731e-07
 -1.558424e-07
 -1.333203e-07
 -1.067463e-07
 -5.642929e-08
 9.274249e-08
 7.020784e-07
 -2.621170e-07
 -1.683566e-06
 -8.625750e-07
 -1.928114e-06
 -1.493171e-06
 1.448824e-06
 9.973526e-07
 -9.326227e-07
 -1.150739e-08
 4.826591e-08
 0.000000e+00
 0.000000e+00
 -1.664242e-07
 -2.201357e-07
 5.435045e-08
 2.970404e-07
 2.428852e-07
 1.483998e-07
 9.677244e-08
 7.192424e-08
 6.129742e-08
 5.855539e-08
 6.055596e-08
 6.558967e-08
 7.257156e-08
 8.069108e-08
 8.926190e-08
 9.765563e-08
 1.052847e-07
 1.116493e-07
 1.164887e-07
 1.201457e-07
 1.247347e-07
 1.400556e-07
 1.112641e-07
 1.756983e-05
 1.092676e-07
 1.314189e-07
 9.561127e-08
 4.372140e-08
 -3.449088e-08
 -1.128054e-07
 -1.594801e-07
 -1.688263e-07
 -1.507573e-07
 -1.164238e-07
 -7.674878e-08
 -3.593703e-08
 1.678916e-08
 1.011597e-07
 1.372196e-07
 -1.312814e-07
 -4.418421e-07
 -4.349909e-07
 -3.942912e-07
 1.701721e-05
 1.706813e-05
 -1.768706e-07
 1.275893e-08
 9.041378e-08
 8.403996e-08
 0.000000e+00
 0.000000e+00
 -2.169764e-07
 -1.300262e-06
 1.467574e-08
 9.262963e-07
 2.885403e-07
 1.251081e-07
 7.173520e-08
 5.263415e-08
 4.688330e-08
 4.758755e-08
 5.202434e-08
 5.882970e-08
 6.711672e-08
 7.622939e-08
 8.572056e-08
 9.540590e-08
 1.054843e-07
 1.168520e-07
 1.320005e-07
 1.577854e-07
 2.151693e-07
 3.798686e-07
 1.015633e-06
 9.717234e-08
 -1.233488e-06
 -1.846093e-07
 -4.618393e-08
 -3.407683e-08
 -6.746321e-08
 -1.138175e-07
 -1.512843e-07
 -1.639242e-07
 -1.394041e-07
 -8.130512e-08
 -1.846397e-08
 2.549835e-08
 5.430332e-08
 7.190190e-08
 4.862877e-08
 -4.047784e-08
 -9.723177e-08
 4.994289e-08
 7.708215e-07
 2.202550e-07
 -3.217622e-06
 -1.981302e-06
 6.095718e-07
 3.886660e-07
 1.872304e-07
 0.000000e+00
 0.000000e+00
 2.115175e-08
 -3.923613e-09
 1.745780e-05
 1.146269e-09
 3.195096e-08
 1.925678e-08
 1.882565e-08
 2.176185e-08
 2.656904e-08
 3.307189e-08
 4.118894e-08
 5.062128e-08
 6.086952e-08
 7.143171e-08
 8.204449e-08
 9.286605e-08
 1.046207e-07
 1.188626e-07
 1.386593e-07
 1.702104e-07
 2.257216e-07
 3.205337e-07
 3.700833e-07
 1.153646e-07
 -1.831767e-07
 -1.743097e-07
 -9.030497e-08
 -7.099005e-08
 -8.868876e-08
 -1.248942e-07
 -1.679016e-07
 -1.986671e-07
 -1.676184e-07
 -4.974400e-08
 6.516529e-08
 1.023865e-07
 9.560600e-08
 7.927552e-08
 5.495416e-08
 2.903034e-08
 4.352775e-08
 1.480037e-07
 2.450532e-07
 -1.309690e-07
 -1.938242e-06
 1.546282e-05
 3.530626e-07
 8.890006e-07
 2.185926e-07
 0.000000e+00
 0.000000e+00
 2.222961e-07
 8.843792e-07
 -1.739195e-08
 -1.332536e-06
 -2.635897e-07
 -9.459667e-08
 -3.670245e-08
 -1.083804e-08
 4.557801e-09
 1.689768e-08
 2.899958e-08
 4.159546e-08
 5.435043e-08
 6.665538e-08
 7.825126e-08
 8.952086e-08
 1.014971e-07
 1.157939e-07
 1.345657e-07
 1.601976e-07
 1.930159e-07
 2.208641e-07
 2.007056e-07
 9.481241e-08
 -2.445749e-08
 -7.001484e-08
 -6.964286e-08
 -7.289212e-08
 -9.266026e-08
 -1.289578e-07
 -1.890140e-07
 -2.958947e-07
 -3.122844e-07
 -1.084589e-08
 2.536890e-07
 2.184882e-07
 1.391708e-07
 9.568697e-08
 7.081135e-08
 6.098827e-08
 8.242906e-08
 1.511762e-07
 2.452560e-07
 3.472418e-07
 7.515982e-07
 1.701901e-05
 1.563602e-05
 -4.214203e-07
 2.492047e-08
 0.000000e+00
 0.000000e+00
 1.492427e-07
 2.307517e-07
 -8.684047e-10
 -2.775584e-07
 -2.433623e-07
 -1.271279e-07
 -6.669446e-08
 -3.472571e-08
 -1.502703e-08
 6.414006e-10
 1.613995e-08
 3.236883e-08
 4.835037e-08
 6.270386e-08
 7.489427e-08
 8.556352e-08
 9.614595e-08
 1.083251e-07
 1.234512e-07
 1.415083e-07
 1.589187e-07
 1.652575e-07
 1.445069e-07
 9.188933e-08
 3.082629e-08
 -1.188288e-08
 -3.646943e-08
 -5.694918e-08
 -8.140980e-08
 -1.125778e-07
 -1.645704e-07
 -3.148420e-07
 -1.358573e-06
 -1.737293e-08
 9.136241e-07
 2.927835e-07
 1.432493e-07
 9.684797e-08
 7.550748e-08
 6.252562e-08
 6.659049e-08
 1.198908e-07
 2.860334e-07
 6.501757e-07
 1.454414e-06
 6.869287e-07
 -2.971918e-06
 -1.899935e-06
 3.718303e-07
 0.000000e+00
 0.000000e+00
 5.678314e-08
 6.115072e-08
 -2.227091e-08
 -1.178165e-07
 -1.362488e-07
 -1.041969e-07
 -7.061660e-08
 -4.756674e-08
 -3.124795e-08
 -1.593556e-08
 2.218399e-09
 2.332864e-08
 4.415053e-08
 6.113322e-08
 7.319210e-08
 8.173299e-08
 8.915361e-08
 9.771384e-08
 1.088651e-07
 1.222616e-07
 1.344033e-07
 1.383106e-07
 1.266247e-07
 9.824234e-08
 6.136220e-08
 2.584127e-08
 -5.652637e-09
 -3.581273e-08
 -6.469152e-08
 -8.301823e-08
 -7.336574e-08
 -2.434000e-08
 -1.532921e-08
 1.746560e-05
 2.057747e-08
 6.719832e-08
 7.199354e-08
 8.042976e-08
 7.548963e-08
 5.034628e-08
 8.052368e-09
 -2.229213e-08
 1.360466e-07
 6.390658e-07
 9.635919e-07
 5.404626e-07
 -2.804941e-07
 1.685352e-05
 -3.738595e-07
 0.000000e+00
 0.000000e+00
 1.414866e-08
 6.742882e-09
 -2.753557e-08
 -6.507539e-08
 -7.994895e-08
 -7.391530e-08
 -6.229768e-08
 -5.354003e-08
 -4.679440e-08
 -3.603980e-08
 -1.531788e-08
 1.453692e-08
 4.430170e-08
 6.494521e-08
 7.515119e-08
 7.898284e-08
 8.090000e-08
 8.422973e-08
 9.148590e-08
 1.035881e-07
 1.179165e-07
 1.280819e-07
 1.274011e-07
 1.134207e-07
 8.892505e-08
 5.847704e-08
 2.432862e-08
 -1.424864e-08
 -5.653612e-08
 -8.294719e-08
 -2.351927e-08
 2.248440e-07
 9.413010e-07
 3.816714e-08
 -1.288517e-06
 -2.003179e-07
 2.129801e-09
 7.852840e-08
 9.627044e-08
 6.167470e-08
 -6.241206e-08
 -2.119741e-07
 -9.441171e-07
 6.614123e-07
 1.506747e-06
 7.105626e-07
 8.309849e-07
 -2.863088e-07
 -1.464755e-06
 0.000000e+00
 0.000000e+00
 -4.491133e-09
 -1.431697e-08
 -2.895082e-08
 -4.151176e-08
 -4.678638e-08
 -4.735053e-08
 -4.947796e-08
 -5.663986e-08
 -6.626336e-08
 -6.738129e-08
 -4.378660e-08
 5.914944e-09
 5.524646e-08
 8.014074e-08
 8.340771e-08
 7.790541e-08
 7.114501e-08
 6.660306e-08
 6.861976e-08
 8.192891e-08
 1.055030e-07
 1.295231e-07
 1.425021e-07
 1.394279e-07
 1.219389e-07
 9.419448e-08
 5.873465e-08
 1.310782e-08
 -5.371361e-08
 -1.625955e-07
 -1.644964e-07
 1.834299e-07
 4.425848e-07
 1.069298e-07
 -2.524131e-07
 -1.674554e-07
 3.339481e-08
 1.280278e-07
 1.622588e-07
 1.547989e-07
 3.167883e-08
 -9.888214e-07
 3.219779e-07
 1.869319e-05
 5.604247e-07
 3.449212e-07
 7.526801e-08
 -3.286515e-07
 -3.781561e-07
 0.000000e+00
 0.000000e+00
 -1.667952e-08
 -2.917422e-08
 -3.277986e-08
 -2.693308e-08
 -1.898815e-08
 -1.860634e-08
 -3.063190e-08
 -5.581765e-08
 -9.267731e-08
 -1.258983e-07
 -1.048839e-07
 -1.658406e-09
 9.684552e-08
 1.182938e-07
 9.894366e-08
 7.736842e-08
 5.949739e-08
 4.269577e-08
 3.341678e-08
 4.814291e-08
 9.234415e-08
 1.433956e-07
 1.748711e-07
 1.802511e-07
 1.649099e-07
 1.367991e-07
 1.019274e-07
 5.943237e-08
 -8.382630e-09
 -1.788830e-07
 -1.243311e-06
 6.437307e-08
 8.915711e-07
 3.138602e-08
 -2.779930e-07
 -7.602217e-08
 1.967059e-07
 2.280754e-07
 2.564208e-07
 3.348252e-07
 4.439492e-07
 5.923256e-07
 1.868345e-05
 2.896486e-07
 -1.049488e-06
 -1.012715e-07
 -2.030877e-07
 -1.394290e-06
 -3.022247e-07
 0.000000e+00
 0.000000e+00
 -3.275145e-08
 -5.360627e-08
 -4.776056e-08
 -1.488735e-08
 1.750458e-08
 2.327163e-08
 1.428736e-09
 -4.202648e-08
 -1.141381e-07
 -2.390287e-07
 -2.778929e-07
 -2.379993e-10
 2.427107e-07
 1.927223e-07
 1.099020e-07
 7.221677e-08
 4.866081e-08
 1.374247e-08
 -2.754891e-08
 -2.157687e-08
 7.183245e-08
 1.815123e-07
 2.350716e-07
 2.420769e-07
 2.203662e-07
 1.850774e-07
 1.505062e-07
 1.242778e-07
 1.093986e-07
 1.126199e-07
 7.115968e-08
 1.749838e-05
 -4.875396e-08
 -2.490168e-07
 -1.399662e-06
 -1.301399e-07
 7.804327e-07
 2.401618e-07
 3.001563e-07
 5.041658e-07
 7.650701e-07
 1.479909e-06
 5.871632e-07
 -1.013026e-06
 -2.664341e-07
 -1.109917e-07
 1.323166e-08
 -5.450603e-09
 1.742818e-05
 0.000000e+00
 0.000000e+00
 -5.941284e-08
 -1.070602e-07
 -9.626764e-08
 -1.879302e-09
 8.656210e-08
 9.367739e-08
 5.247312e-08
 -3.024142e-09
 -8.348869e-08
 -2.691378e-07
 -1.351256e-06
 -4.620274e-08
 8.533748e-07
 2.129633e-07
 6.980320e-08
 5.467148e-08
 5.368004e-08
 1.933922e-09
 -1.347112e-07
 -2.072354e-07
 3.664877e-08
 2.966326e-07
 3.386522e-07
 3.327019e-07
 2.895425e-07
 2.311459e-07
 1.898978e-07
 1.780260e-07
 2.126613e-07
 3.646912e-07
 9.926311e-07
 6.504480e-08
 -1.280487e-06
 -2.443598e-07
 -1.678696e-07
 1.726251e-05
 -2.893325e-07
 -2.088209e-07
 2.400676e-07
 6.857819e-07
 7.995447e-07
 7.781967e-07
 4.468712e-07
 2.760248e-08
 -5.994033e-08
 5.579062e-08
 2.874152e-07
 9.995300e-07
 2.556059e-07
 0.000000e+00
 0.000000e+00
 -8.907467e-08
 -2.191054e-07
 -2.580482e-07
 2.123928e-08
 2.641326e-07
 2.078774e-07
 1.097449e-07
 5.303211e-08
 2.252135e-08
 1.336408e-08
 -3.827335e-08
 1.739347e-05
 -9.866285e-08
 -9.502364e-08
 -7.819105e-08
 2.876554e-08
 1.151957e-07
 7.702839e-08
 -1.365878e-07
 -1.285666e-06
 -9.784860e-08
 7.718487e-07
 4.089493e-07
 4.841848e-07
 3.718243e-07
 2.553582e-07
 2.007178e-07
 1.916582e-07
 2.259175e-07
 3.125362e-07
 3.655551e-07
 1.299439e-07
 -1.156247e-07
 5.239558e-08
 7.567533e-07
 -1.982530e-07
 -1.745000e-06
 -1.721562e-06
 1.106544e-07
 1.394166e-06
 7.879824e-07
 5.445280e-07
 3.403082e-07
 1.595963e-07
 9.034054e-08
 1.364165e-07
 2.670757e-07
 3.858173e-07
 2.552265e-07
 0.000000e+00
 0.000000e+00
 -7.691335e-08
 -2.527070e-07
 -1.321953e-06
 -1.637456e-09
 9.128404e-07
 2.784149e-07
 1.217928e-07
 8.512910e-08
 1.123800e-07
 2.563097e-07
 8.706335e-07
 -7.794301e-08
 -1.459048e-06
 -4.998283e-07
 -3.430604e-07
 2.643364e-08
 3.224489e-07
 2.931830e-07
 2.042507e-07
 7.009007e-08
 1.733348e-05
 -1.208378e-06
 1.307695e-07
 1.022876e-06
 3.793237e-07
 2.161247e-07
 1.691485e-07
 1.648091e-07
 1.835755e-07
 2.090986e-07
 2.008063e-07
 1.285974e-07
 7.830438e-08
 1.509287e-07
 2.271737e-07
 -2.113002e-08
 -4.142210e-07
 -1.439081e-06
 1.749457e-05
 1.046248e-06
 4.931320e-07
 3.239399e-07
 2.293035e-07
 1.552292e-07
 1.217706e-07
 1.368158e-07
 1.789949e-07
 1.948018e-07
 1.277932e-07
 0.000000e+00
 0.000000e+00
 6.094974e-09
 2.358531e-08
 -2.233422e-09
 1.746039e-05
 6.664501e-09
 4.366853e-08
 4.303908e-08
 6.596598e-08
 1.145930e-07
 2.010258e-07
 2.377392e-07
 -3.985119e-08
 -3.871416e-07
 -5.185891e-07
 -1.436351e-06
 8.719624e-09
 1.027191e-06
 4.864501e-07
 4.971492e-07
 1.078530e-06
 1.500386e-07
 -1.217353e-06
 1.729632e-05
 -2.345626e-09
 7.937594e-08
 8.847114e-08
 1.013705e-07
 1.153940e-07
 1.290711e-07
 1.363360e-07
 1.284125e-07
 1.106545e-07
 1.147683e-07
 1.584149e-07
 1.975228e-07
 1.946169e-07
 2.975242e-07
 9.048600e-07
 1.750061e-05
 -1.226479e-06
 -9.582851e-08
 6.772197e-08
 1.075945e-07
 1.059372e-07
 9.990990e-08
 1.042804e-07
 1.131401e-07
 1.060503e-07
 6.597095e-08
 0.000000e+00
 0.000000e+00
 8.180347e-08
 2.607048e-07
 9.079984e-07
 2.219521e-09
 -1.311126e-06
 -2.354679e-07
 -5.407213e-08
 2.328488e-08
 7.503461e-08
 1.095107e-07
 8.985767e-08
 -1.975709e-08
 -1.433901e-07
 -1.684553e-07
 -1.258440e-07
 1.749659e-05
 1.987294e-07
 3.288954e-07
 4.178965e-07
 5.023071e-07
 4.032910e-07
 7.449579e-07
 -1.463496e-07
 -1.358686e-06
 -2.368535e-07
 -4.051275e-08
 3.237051e-08
 6.545146e-08
 7.997756e-08
 8.093066e-08
 7.230912e-08
 6.920016e-08
 9.775794e-08
 1.661119e-07
 2.477352e-07
 3.427823e-07
 5.648527e-07
 1.234146e-06
 7.920142e-08
 -1.504385e-06
 -3.830615e-07
 -8.762831e-08
 2.275503e-08
 5.747797e-08
 6.406782e-08
 6.445095e-08
 6.350802e-08
 5.539927e-08
 3.346095e-08
 0.000000e+00
 0.000000e+00
 8.610567e-08
 2.008622e-07
 2.671315e-07
 3.050711e-08
 -2.449196e-07
 -2.044037e-07
 -7.707634e-08
 -1.792187e-09
 4.459667e-08
 6.755176e-08
 5.940544e-08
 2.083416e-08
 -1.494693e-08
 3.100701e-08
 6.632660e-07
 7.511983e-08
 -9.492223e-07
 1.238178e-07
 2.618818e-07
 3.081987e-07
 3.054091e-07
 2.522601e-07
 -1.999703e-08
 -2.765852e-07
 -2.142062e-07
 -7.716201e-08
 -4.099729e-09
 3.186936e-08
 4.424144e-08
 3.717310e-08
 1.370508e-08
 -6.975012e-09
 3.213104e-08
 1.642190e-07
 3.053076e-07
 3.905558e-07
 4.642486e-07
 4.522140e-07
 8.270136e-08
 -2.988596e-07
 -2.583827e-07
 -8.538244e-08
 5.918069e-09
 3.337505e-08
 3.159674e-08
 2.402161e-08
 2.086071e-08
 2.040389e-08
 1.432099e-08
 0.000000e+00
 0.000000e+00
 5.681588e-08
 1.034824e-07
 1.009292e-07
 1.503479e-08
 -7.885721e-08
 -9.132706e-08
 -4.885477e-08
 -1.525537e-09
 3.492989e-08
 5.776703e-08
 6.609367e-08
 6.323908e-08
 5.236002e-08
 -1.720961e-08
 -1.013602e-06
 8.767436e-08
 7.498849e-07
 1.788535e-07
 1.615443e-07
 1.817508e-07
 1.758471e-07
 1.207784e-07
 7.819343e-09
 -8.890283e-08
 -9.582068e-08
 -5.033702e-08
 -6.313712e-09
 2.034710e-08
 2.759186e-08
 1.165215e-08
 -3.853389e-08
 -1.435746e-07
 -1.568800e-07
 1.583957e-07
 4.479819e-07
 4.368942e-07
 3.536154e-07
 2.261977e-07
 1.743440e-08
 -1.352268e-07
 -9.626094e-08
 1.384318e-08
 5.391774e-08
 3.600700e-08
 2.761367e-09
 -2.290446e-08
 -2.592079e-08
 -7.782543e-09
 5.835947e-09
 0.000000e+00
 0.000000e+00
 3.145585e-08
 5.127977e-08
 4.540645e-08
 1.171408e-08
 -2.409508e-08
 -3.373380e-08
 -1.705229e-08
 1.075917e-08
 3.885281e-08
 6.331522e-08
 8.492358e-08
 1.088317e-07
 1.429211e-07