<VTKFile type="UnstructuredGrid"  version="0.1"   >
<UnstructuredGrid>  
<Piece  NumberOfPoints="     2601"  NumberOfCells="     5000">  
<Points>  
<DataArray  type="Float64"  NumberOfComponents="3"  format="ascii">  
 0.000000 0.000000 0.000000 
 0.020000 0.000000 0.000000 
 0.040000 0.000000 0.000000 
 0.060000 0.000000 0.000000 
 0.080000 0.000000 0.000000 
 0.100000 0.000000 0.000000 
 0.120000 0.000000 0.000000 
 0.140000 0.000000 0.000000 
 0.160000 0.000000 0.000000 
 0.180000 0.000000 0.000000 
 0.200000 0.000000 0.000000 
 0.220000 0.000000 0.000000 
 0.240000 0.000000 0.000000 
 0.260000 0.000000 0.000000 
 0.280000 0.000000 0.000000 
 0.300000 0.000000 0.000000 
 0.320000 0.000000 0.000000 
 0.340000 0.000000 0.000000 
 0.360000 0.000000 0.000000 
 0.380000 0.000000 0.000000 
 0.400000 0.000000 0.000000 
 0.420000 0.000000 0.000000 
 0.440000 0.000000 0.000000 
 0.460000 0.000000 0.000000 
 0.480000 0.000000 0.000000 
 0.500000 0.000000 0.000000 
 0.520000 0.000000 0.000000 
 0.540000 0.000000 0.000000 
 0.560000 0.000000 0.000000 
 0.580000 0.000000 0.000000 
 0.600000 0.000000 0.000000 
 0.620000 0.000000 0.000000 
 0.640000 0.000000 0.000000 
 0.660000 0.000000 0.000000 
 0.680000 0.000000 0.000000 
 0.700000 0.000000 0.000000 
 0.720000 0.000000 0.000000 
 0.740000 0.000000 0.000000 
 0.760000 0.000000 0.000000 
 0.780000 0.000000 0.000000 
 0.800000 0.000000 0.000000 
 0.820000 0.000000 0.000000 
 0.840000 0.000000 0.000000 
 0.860000 0.000000 0.000000 
 0.880000 0.000000 0.000000 
 0.900000 0.000000 0.000000 
 0.920000 0.000000 0.000000 
 0.940000 0.000000 0.000000 
 0.960000 0.000000 0.000000 
 0.980000 0.000000 0.000000 
 1.000000 0.000000 0.000000 
 0.000000 0.020000 0.000000 
 0.020000 0.020000 0.000000 
 0.040000 0.020000 0.000000 
 0.060000 0.020000 0.000000 
 0.080000 0.020000 0.000000 
 0.100000 0.020000 0.000000 
 0.120000 0.020000 0.000000 
 0.140000 0.020000 0.000000 
 0.160000 0.020000 0.000000 
 0.180000 0.020000 0.000000 
 0.200000 0.020000 0.000000 
 0.220000 0.020000 0.000000 
 0.240000 0.020000 0.000000 
 0.260000 0.020000 0.000000 
 0.280000 0.020000 0.000000 
 0.300000 0.020000 0.000000 
 0.320000 0.020000 0.000000 
 0.340000 0.020000 0.000000 
 0.360000 0.020000 0.000000 
 0.380000 0.020000 0.000000 
 0.400000 0.020000 0.000000 
 0.420000 0.020000 0.000000 
 0.440000 0.020000 0.000000 
 0.460000 0.020000 0.000000 
 0.480000 0.020000 0.000000 
 0.500000 0.020000 0.000000 
 0.520000 0.020000 0.000000 
 0.540000 0.020000 0.000000 
 0.560000 0.020000 0.000000 
 0.580000 0.020000 0.000000 
 0.600000 0.020000 0.000000 
 0.620000 0.020000 0.000000 
 0.640000 0.020000 0.000000 
 0.660000 0.020000 0.000000 
 0.680000 0.020000 0.000000 
 0.700000 0.020000 0.000000 
 0.720000 0.020000 0.000000 
 0.740000 0.020000 0.000000 
 0.760000 0.020000 0.000000 
 0.780000 0.020000 0.000000 
 0.800000 0.020000 0.000000 
 0.820000 0.020000 0.000000 
 0.840000 0.020000 0.000000 
 0.860000 0.020000 0.000000 
 0.880000 0.020000 0.000000 
 0.900000 0.020000 0.000000 
 0.920000 0.020000 0.000000 
 0.940000 0.020000 0.000000 
 0.960000 0.020000 0.000000 
 0.980000 0.020000 0.000000 
 1.000000 0.020000 0.000000 
 0.000000 0.040000 0.000000 
 0.020000 0.040000 0.000000 
 0.040000 0.040000 0.000000 
 0.060000 0.040000 0.000000 
 0.080000 0.040000 0.000000 
 0.100000 0.040000 0.000000 
 0.120000 0.040000 0.000000 
 0.140000 0.040000 0.000000 
 0.160000 0.040000 0.000000 
 0.180000 0.040000 0.000000 
 0.200000 0.040000 0.000000 
 0.220000 0.040000 0.000000 
 0.240000 0.040000 0.000000 
 0.260000 0.040000 0.000000 
 0.280000 0.040000 0.000000 
 0.300000 0.040000 0.000000 
 0.320000 0.040000 0.000000 
 0.340000 0.040000 0.000000 
 0.360000 0.040000 0.000000 
 0.380000 0.040000 0.000000 
 0.400000 0.040000 0.000000 
 0.420000 0.040000 0.000000 
 0.440000 0.040000 0.000000 
 0.460000 0.040000 0.000000 
 0.480000 0.040000 0.000000 
 0.500000 0.040000 0.000000 
 0.520000 0.040000 0.000000 
 0.540000 0.040000 0.000000 
 0.560000 0.040000 0.000000 
 0.580000 0.040000 0.000000 
 0.600000 0.040000 0.000000 
 0.620000 0.040000 0.000000 
 0.640000 0.040000 0.000000 
 0.660000 0.040000 0.000000 
 0.680000 0.040000 0.000000 
 0.700000 0.040000 0.000000 
 0.720000 0.040000 0.000000 
 0.740000 0.040000 0.000000 
 0.760000 0.040000 0.000000 
 0.780000 0.040000 0.000000 
 0.800000 0.040000 0.000000 
 0.820000 0.040000 0.000000 
 0.840000 0.040000 0.000000 
 0.860000 0.040000 0.000000 
 0.880000 0.040000 0.000000 
 0.900000 0.040000 0.000000 
 0.920000 0.040000 0.000000 
 0.940000 0.040000 0.000000 
 0.960000 0.040000 0.000000 
 0.980000 0.040000 0.000000 
 1.000000 0.040000 0.000000 
 0.000000 0.060000 0.000000 
 0.020000 0.060000 0.000000 
 0.040000 0.060000 0.000000 
 0.060000 0.060000 0.000000 
 0.080000 0.060000 0.000000 
 0.100000 0.060000 0.000000 
 0.120000 0.060000 0.000000 
 0.140000 0.060000 0.000000 
 0.160000 0.060000 0.000000 
 0.180000 0.060000 0.000000 
 0.200000 0.060000 0.000000 
 0.220000 0.060000 0.000000 
 0.240000 0.060000 0.000000 
 0.260000 0.060000 0.000000 
 0.280000 0.060000 0.000000 
 0.300000 0.060000 0.000000 
 0.320000 0.060000 0.000000 
 0.340000 0.060000 0.000000 
 0.360000 0.060000 0.000000 
 0.380000 0.060000 0.000000 
 0.400000 0.060000 0.000000 
 0.420000 0.060000 0.000000 
 0.440000 0.060000 0.000000 
 0.460000 0.060000 0.000000 
 0.480000 0.060000 0.000000 
 0.500000 0.060000 0.000000 
 0.520000 0.060000 0.000000 
 0.540000 0.060000 0.000000 
 0.560000 0.060000 0.000000 
 0.580000 0.060000 0.000000 
 0.600000 0.060000 0.000000 
 0.620000 0.060000 0.000000 
 0.640000 0.060000 0.000000 
 0.660000 0.060000 0.000000 
 0.680000 0.060000 0.000000 
 0.700000 0.060000 0.000000 
 0.720000 0.060000 0.000000 
 0.740000 0.060000 0.000000 
 0.760000 0.060000 0.000000 
 0.780000 0.060000 0.000000 
 0.800000 0.060000 0.000000 
 0.820000 0.060000 0.000000 
 0.840000 0.060000 0.000000 
 0.860000 0.060000 0.000000 
 0.880000 0.060000 0.000000 
 0.900000 0.060000 0.000000 
 0.920000 0.060000 0.000000 
 0.940000 0.060000 0.000000 
 0.960000 0.060000 0.000000 
 0.980000 0.060000 0.000000 
 1.000000 0.060000 0.000000 
 0.000000 0.080000 0.000000 
 0.020000 0.080000 0.000000 
 0.040000 0.080000 0.000000 
 0.060000 0.080000 0.000000 
 0.080000 0.080000 0.000000 
 0.100000 0.080000 0.000000 
 0.120000 0.080000 0.000000 
 0.140000 0.080000 0.000000 
 0.160000 0.080000 0.000000 
 0.180000 0.080000 0.000000 
 0.200000 0.080000 0.000000 
 0.220000 0.080000 0.000000 
 0.240000 0.080000 0.000000 
 0.260000 0.080000 0.000000 
 0.280000 0.080000 0.000000 
 0.300000 0.080000 0.000000 
 0.320000 0.080000 0.000000 
 0.340000 0.080000 0.000000 
 0.360000 0.080000 0.000000 
 0.380000 0.080000 0.000000 
 0.400000 0.080000 0.000000 
 0.420000 0.080000 0.000000 
 0.440000 0.080000 0.000000 
 0.460000 0.080000 0.000000 
 0.480000 0.080000 0.000000 
 0.500000 0.080000 0.000000 
 0.520000 0.080000 0.000000 
 0.540000 0.080000 0.000000 
 0.560000 0.080000 0.000000 
 0.580000 0.080000 0.000000 
 0.600000 0.080000 0.000000 
 0.620000 0.080000 0.000000 
 0.640000 0.080000 0.000000 
 0.660000 0.080000 0.000000 
 0.680000 0.080000 0.000000 
 0.700000 0.080000 0.000000 
 0.720000 0.080000 0.000000 
 0.740000 0.080000 0.000000 
 0.760000 0.080000 0.000000 
 0.780000 0.080000 0.000000 
 0.800000 0.080000 0.000000 
 0.820000 0.080000 0.000000 
 0.840000 0.080000 0.000000 
 0.860000 0.080000 0.000000 
 0.880000 0.080000 0.000000 
 0.900000 0.080000 0.000000 
 0.920000 0.080000 0.000000 
 0.940000 0.080000 0.000000 
 0.960000 0.080000 0.000000 
 0.980000 0.080000 0.000000 
 1.000000 0.080000 0.000000 
 0.000000 0.100000 0.000000 
 0.020000 0.100000 0.000000 
 0.040000 0.100000 0.000000 
 0.060000 0.100000 0.000000 
 0.080000 0.100000 0.000000 
 0.100000 0.100000 0.000000 
 0.120000 0.100000 0.000000 
 0.140000 0.100000 0.000000 
 0.160000 0.100000 0.000000 
 0.180000 0.100000 0.000000 
 0.200000 0.100000 0.000000 
 0.220000 0.100000 0.000000 
 0.240000 0.100000 0.000000 
 0.260000 0.100000 0.000000 
 0.280000 0.100000 0.000000 
 0.300000 0.100000 0.000000 
 0.320000 0.100000 0.000000 
 0.340000 0.100000 0.000000 
 0.360000 0.100000 0.000000 
 0.380000 0.100000 0.000000 
 0.400000 0.100000 0.000000 
 0.420000 0.100000 0.000000 
 0.440000 0.100000 0.000000 
 0.460000 0.100000 0.000000 
 0.480000 0.100000 0.000000 
 0.500000 0.100000 0.000000 
 0.520000 0.100000 0.000000 
 0.540000 0.100000 0.000000 
 0.560000 0.100000 0.000000 
 0.580000 0.100000 0.000000 
 0.600000 0.100000 0.000000 
 0.620000 0.100000 0.000000 
 0.640000 0.100000 0.000000 
 0.660000 0.100000 0.000000 
 0.680000 0.100000 0.000000 
 0.700000 0.100000 0.000000 
 0.720000 0.100000 0.000000 
 0.740000 0.100000 0.000000 
 0.760000 0.100000 0.000000 
 0.780000 0.100000 0.000000 
 0.800000 0.100000 0.000000 
 0.820000 0.100000 0.000000 
 0.840000 0.100000 0.000000 
 0.860000 0.100000 0.000000 
 0.880000 0.100000 0.000000 
 0.900000 0.100000 0.000000 
 0.920000 0.100000 0.000000 
 0.940000 0.100000 0.000000 
 0.960000 0.100000 0.000000 
 0.980000 0.100000 0.000000 
 1.000000 0.100000 0.000000 
 0.000000 0.120000 0.000000 
 0.020000 0.120000 0.000000 
 0.040000 0.120000 0.000000 
 0.060000 0.120000 0.000000 
 0.080000 0.120000 0.000000 
 0.100000 0.120000 0.000000 
 0.120000 0.120000 0.000000 
 0.140000 0.120000 0.000000 
 0.160000 0.120000 0.000000 
 0.180000 0.120000 0.000000 
 0.200000 0.120000 0.000000 
 0.220000 0.120000 0.000000 
 0.240000 0.120000 0.000000 
 0.260000 0.120000 0.000000 
 0.280000 0.120000 0.000000 
 0.300000 0.120000 0.000000 
 0.320000 0.120000 0.000000 
 0.340000 0.120000 0.000000 
 0.360000 0.120000 0.000000 
 0.380000 0.120000 0.000000 
 0.400000 0.120000 0.000000 
 0.420000 0.120000 0.000000 
 0.440000 0.120000 0.000000 
 0.460000 0.120000 0.000000 
 0.480000 0.120000 0.000000 
 0.500000 0.120000 0.000000 
 0.520000 0.120000 0.000000 
 0.540000 0.120000 0.000000 
 0.560000 0.120000 0.000000 
 0.580000 0.120000 0.000000 
 0.600000 0.120000 0.000000 
[...]
<PointData  Scalars="U"> 
<DataArray  type="Float64"  Name="U"  format="ascii"> 
 0.000000e+00
 0.000000e+00
 0.000000e+00
 0.000000e+00
 0.000000e+00
 0.000000e+00
 0.000000e+00
 0.000000e+00
 0.000000e+00
 0.000000e+00
 0.000000e+00
 0.000000e+00
 0.000000e+00
 0.000000e+00
 0.000000e+00
 0.000000e+00
 0.000000e+00
 0.000000e+00
 0.000000e+00
 0.000000e+00
 0.000000e+00
 0.000000e+00
 0.000000e+00
 0.000000e+00
 0.000000e+00
 0.000000e+00
 0.000000e+00
 0.000000e+00
 0.000000e+00
 0.000000e+00
 0.000000e+00
 0.000000e+00
 0.000000e+00
 0.000000e+00
 0.000000e+00
 0.000000e+00
 0.000000e+00
 0.000000e+00
 0.000000e+00
 0.000000e+00
 0.000000e+00
 0.000000e+00
 0.000000e+00
 0.000000e+00
 0.000000e+00
 0.000000e+00
 0.000000e+00
 0.000000e+00
 0.000000e+00
 0.000000e+00
 0.000000e+00
 0.000000e+00
 -2.909858e-06
 -3.441309e-06
 -1.218823e-06
 -1.822558e-06
 -5.357070e-07
 7.476642e-08
 -1.367771e-06
 -3.534959e-06
 -3.736728e-06
 -1.209677e-06
 -6.033813e-07
 -3.855767e-07
 -2.566710e-07
 -1.133542e-07
 -1.233879e-08
 -2.313422e-08
 -1.377284e-07
 -1.909925e-07
 5.574196e-08
 2.731229e-07
 2.204276e-07
 8.065221e-08
 1.745387e-05
 -6.276143e-08
 -5.387001e-08
 -5.938926e-08
 -3.945826e-08
 -1.221250e-08
 1.680275e-08
 4.570471e-08
 8.925329e-10
 1.740655e-05
 -1.223446e-07
 -1.472738e-07
 -1.556174e-07
 -7.478506e-08
 6.650586e-10
 3.301688e-09
 -2.854072e-08
 -5.642552e-08
 -7.250344e-08
 -7.435695e-08
 -5.303241e-08
 -8.442738e-09
 3.507055e-08
 5.424478e-08
 5.049017e-08
 3.556050e-08
 1.656618e-08
 0.000000e+00
 0.000000e+00
 -1.155845e-06
 -1.475209e-06
 -1.088100e-06
 -8.267093e-07
 1.662856e-05
 -1.077153e-06
 -1.544037e-06
 -2.094683e-06
 -2.025086e-06
 -1.394330e-06
 -8.973654e-07
 -7.028198e-07
 -5.626802e-07
 -1.841565e-07
 1.082611e-07
 5.029002e-08
 -1.718369e-07
 -1.261003e-06
 5.727672e-08
 9.848808e-07
 3.609790e-07
 -2.686780e-07
 -3.709503e-08
 -5.770292e-07
 -1.766987e-07
 -1.383070e-07
 -8.454534e-08
 -2.626970e-08
 3.599616e-08
 8.437127e-08
 -3.635016e-07
 -8.818196e-08
 -6.670514e-07
 -3.942582e-07
 -4.228778e-07
 -1.383434e-07
 1.003596e-07
 3.613945e-08
 -6.738103e-08
 -1.249345e-07
 -1.572148e-07
 -1.731452e-07
 -1.352002e-07
 -1.550351e-08
 1.002069e-07
 1.328787e-07
 1.109308e-07
 7.398026e-08
 3.613276e-08
 0.000000e+00
 0.000000e+00
 -5.469062e-07
 -7.810277e-07
 -6.301412e-07
 5.308743e-08
 -9.001209e-07
 -2.375421e-06
 -1.541573e-06
 -1.553748e-06
 -1.449602e-06
 -1.168631e-06
 -8.938415e-07
 -8.059329e-07
 -1.696283e-06
 -2.556866e-07
 7.426697e-07
 1.715390e-07
 7.388227e-08
 3.741871e-08
 1.752725e-05
 1.318455e-07
 2.679673e-07
 2.489021e-07
 1.740375e-05
 -3.896981e-07
 -3.459919e-07
 -2.279990e-07
 -1.322910e-07
 -4.600223e-08
 5.660813e-08
 2.063834e-07
 2.481246e-07
 1.742384e-05
 -4.229852e-07
 -5.797299e-07
 -1.583151e-06
 -2.369560e-07
 6.749390e-07
 2.203165e-08
 -1.575222e-07
 -2.170969e-07
 -2.476497e-07
 -3.234859e-07
 -3.286865e-07
 -1.624774e-08
 2.753131e-07
 2.635485e-07
 1.809766e-07
 1.119596e-07
 5.323735e-08
 0.000000e+00
 0.000000e+00
 -3.068606e-07
 -4.879821e-07
 -5.087934e-07
 -5.135882e-07
 -8.210082e-07
 -1.192488e-06
 -1.259934e-06
 -1.201235e-06
 -1.097533e-06
 -9.217877e-07
 -7.143985e-07
 -5.125818e-07
 -3.887772e-07
 1.719288e-05
 -1.576497e-07
 -4.809397e-09
 2.038748e-07
 8.958519e-07
 4.847401e-08
 -1.174820e-06
 8.240809e-08
 8.547572e-07
 -1.261064e-07
 -1.551371e-06
 -5.048331e-07
 -2.895488e-07
 -1.693485e-07
 -8.011434e-08
 2.612078e-08
 2.641829e-07
 9.825715e-07
 3.826915e-08
 -1.409408e-06
 -4.194797e-07
 -3.157661e-07
 1.717705e-05
 -2.894985e-07
 -2.931505e-07
 -3.444703e-07
 -3.408313e-07
 -2.891219e-07
 -3.664044e-07
 -1.424639e-06
 -8.705063e-08
 9.250543e-07
 3.856893e-07
 2.353468e-07
 1.398415e-07
 6.463894e-08
 0.000000e+00
 0.000000e+00
 -2.105137e-07
 -3.745754e-07
 -4.870521e-07
 -5.982983e-07
 -7.544004e-07
 -8.904763e-07
 -9.329681e-07
 -9.059891e-07
 -8.317357e-07
 -7.048607e-07
 -5.188791e-07
 -2.201856e-07
 5.412098e-07
 -2.613098e-07
 -1.476284e-06
 -2.920303e-07
 2.727598e-08
 1.917662e-07
 2.916285e-08
 -1.679903e-07
 -3.306022e-08
 1.093604e-07
 -1.351044e-07
 -4.454918e-07
 -4.188839e-07
 -2.769587e-07
 -1.772514e-07
 -1.191873e-07
 -1.156836e-07
 -1.875086e-08
 3.093101e-07
 2.670751e-07
 -9.205863e-08
 -4.765959e-08
 6.188533e-07
 -2.907511e-07
 -1.637673e-06
 -6.356404e-07
 -5.857780e-07
 -5.495718e-07
 -2.246323e-07
 2.578698e-08
 -1.479458e-07
 1.720818e-05
 2.425143e-08
 3.194587e-07
 2.596120e-07
 1.474924e-07
 6.525288e-08
 0.000000e+00
 0.000000e+00
 -1.681491e-07
 -3.239525e-07
 -4.697020e-07
 -6.100438e-07
 -7.061231e-07
 -7.082652e-07
 -6.699746e-07
 -6.518754e-07
 -6.210827e-07
 -5.419521e-07
 -4.067808e-07
 -2.163571e-07
 -6.732255e-08
 -2.226997e-07
 -4.195405e-07
 -3.022714e-07
 -1.096013e-07
 -1.928925e-08
 -3.942864e-08
 -8.310434e-08
 -7.063887e-08
 -7.059446e-08
 -1.624483e-07
 -2.694691e-07
 -2.838028e-07
 -2.229437e-07
 -1.466789e-07
 -1.037278e-07
 -1.867313e-07
 -1.199818e-06
 1.043872e-07
 9.091030e-07
 1.721231e-07
 3.574491e-08
 2.761959e-08
 -2.433577e-07
 -5.635514e-07
 -6.095683e-07
 -6.772762e-07
 -1.644176e-06
 -1.655649e-07
 9.393194e-07
 7.603844e-07
 -1.390295e-06
 -1.359709e-06
 7.047524e-07
 2.579288e-07
 1.210492e-07
 4.891043e-08
 0.000000e+00
 0.000000e+00
 -1.412331e-07
 -2.856097e-07
 -4.481067e-07
 -6.589364e-07
 -7.790770e-07
 -5.676052e-07
 -3.621413e-07
 -4.144213e-07
 -4.647928e-07
 -4.349591e-07
 -3.529009e-07
 -2.552543e-07
 -1.983989e-07
 -2.247176e-07
 -2.622914e-07
 -2.252315e-07
 -1.485126e-07
 -9.534181e-08
 -8.328898e-08
 -9.092814e-08
 -9.895680e-08
 -1.203561e-07
 -1.684362e-07
 -2.180613e-07
 -2.277409e-07
 -1.793929e-07
 -8.766458e-08
 8.311361e-09
 8.318702e-08
 7.250271e-08
 1.750787e-05
 -5.615116e-09
 -2.827703e-08
 -6.938656e-08
 -1.144059e-07
 -2.271495e-07
 -3.519331e-07
 -4.140260e-07
 -4.540055e-07
 -4.388425e-07
 1.737259e-05
 2.122623e-07
 1.215700e-07
 -3.291343e-07
 1.707733e-05
 -5.686172e-08
 9.058601e-08
 4.448788e-08
 1.025502e-08
 0.000000e+00
 0.000000e+00
 -1.132898e-07
 -2.325151e-07
 -3.778236e-07
 -6.273366e-07
 -1.766822e-06
 -5.046164e-07
 3.738822e-07
 -2.655936e-07
 -3.936381e-07
 -3.800308e-07
 -3.189734e-07
 -2.558077e-07
 -2.181515e-07
 -2.113292e-07
 -2.104614e-07
 -1.897233e-07
 -1.538324e-07
 -1.229401e-07
 -1.078500e-07
 -1.062514e-07
 -1.142393e-07
 -1.345362e-07
 -1.697004e-07
 -2.118600e-07
 -2.352498e-07
 -1.845184e-07
 -3.065592e-08
 1.515637e-07
 3.568600e-07
 9.786177e-07
 2.943924e-08
 -1.333341e-06
 -3.063424e-07
 -1.734971e-07
 -1.593911e-07
 -1.937772e-07
 -2.337703e-07
 -2.379709e-07
 -1.920108e-07
 -5.331060e-07
 -4.053714e-08
 -4.128682e-07
 -5.814297e-08
 -7.129005e-07
 -4.747161e-07
 -6.731948e-07
 -2.531370e-08
 -5.518486e-08
 -5.858930e-08
 0.000000e+00
 0.000000e+00
 -8.129664e-08
 -1.600065e-07
 -2.327468e-07
 -2.890982e-07
 -3.827486e-07
 1.702099e-05
 -4.767907e-07
 -4.580794e-07
 -4.391205e-07
 -3.671516e-07
 -2.849126e-07
 -2.274954e-07
 -2.004436e-07
 -1.916440e-07
 -1.855524e-07
 -1.720497e-07
 -1.518099e-07
 -1.320822e-07
 -1.187646e-07
 -1.136686e-07
 -1.172725e-07
 -1.317658e-07
 -1.618129e-07
 -2.172444e-07
 -3.181863e-07
 -3.210752e-07
 8.718258e-09
 3.266423e-07
 3.824033e-07
 3.466558e-07
 4.372834e-08
 -2.789292e-07
 -2.776847e-07
 -1.883847e-07
 -1.555551e-07
 -1.539608e-07
 -1.565634e-07
 -1.192913e-07
 3.947692e-08
 2.076986e-07
 1.756792e-05
 -1.033350e-07
 -2.709855e-08
 -1.507966e-07
 1.595468e-05
 -5.411964e-07
 3.058575e-07
 -2.916258e-07
 -1.862322e-07
 0.000000e+00
 0.000000e+00
 -5.185716e-08
 -9.280420e-08
 -9.970759e-08
 4.262818e-09
 5.833315e-07
 -3.875354e-07
 -1.763920e-06
 -7.362097e-07
 -5.403866e-07
 -3.635537e-07
 -2.195636e-07
 -1.661234e-07
 -1.640701e-07
 -1.701685e-07
 -1.702213e-07
 -1.623216e-07
 -1.488506e-07
 -1.339526e-07
 -1.212418e-07
 -1.127776e-07
 -1.097763e-07
 -1.140848e-07
 -1.307738e-07
 -1.778384e-07
 -3.303735e-07
 -1.373738e-06
 -2.099367e-08
 9.320542e-07
 3.286779e-07
 1.504864e-07
 -2.803586e-09
 -1.319787e-07
 -1.684403e-07
 -1.464910e-07
 -1.206087e-07
 -1.079559e-07
 -1.100395e-07
 -1.233159e-07
 6.348860e-08
 1.011058e-06
 3.149678e-07
 -1.055181e-06
 9.258715e-08
 8.510612e-07
 -1.719539e-07
 1.581658e-05
 -7.676318e-07
 -1.634647e-06
 -3.668212e-07
 0.000000e+00
 0.000000e+00
 -3.182591e-08
 -5.342970e-08
 -5.021097e-08
 -5.620769e-09
 -4.656943e-09
 -3.102569e-07
 -6.737381e-07
 -7.672848e-07
 -6.825287e-07
 -3.295652e-07
 -3.784410e-08
 -5.732431e-08
 -1.254551e-07
 -1.561752e-07
 -1.634768e-07
 -1.584800e-07
 -1.471860e-07
 -1.333192e-07
 -1.193168e-07
 -1.065202e-07
 -9.537072e-08
 -8.554886e-08
 -7.578114e-08
 -6.284911e-08
 -3.602351e-08
 -4.982454e-08
 1.742647e-05
 -1.630133e-08
 1.805747e-08
 -1.544429e-08
 -6.280468e-08
 -1.060796e-07
 -1.178014e-07
 -9.959044e-08
 -7.068114e-08
 -4.750499e-08
 -4.786332e-08
 -1.372391e-07
 -1.089043e-06
 2.992339e-07
 9.945738e-07
 1.556063e-07
 1.883510e-07
 4.550698e-07
 8.390007e-07
 -3.807731e-07
 -1.655025e-06
 -4.701087e-07
 1.726054e-05
 0.000000e+00
 0.000000e+00
 -2.125890e-08
 -3.753104e-08
 -4.628180e-08
 -5.798754e-08
 -1.153870e-07
 -2.601463e-07
 -4.381896e-07
 -6.389318e-07
 -1.677567e-06
 -3.193324e-07
 6.259164e-07
 1.427402e-08
 -1.281744e-07
 -1.641086e-07
 -1.682022e-07
 -1.606229e-07
 -1.478976e-07
 -1.326336e-07
 -1.160371e-07
 -9.849879e-08
 -7.949250e-08
 -5.670189e-08
 -2.318020e-08
 4.241024e-08
 2.162765e-07
 8.624449e-07
 -4.468147e-08
 -1.364156e-06
 -3.053980e-07
 -1.567056e-07
 -1.254965e-07
 -1.186001e-07
 -1.001114e-07
 -6.207061e-08
 -1.447207e-08
 3.159943e-08
 7.462435e-08
 1.230429e-07
 1.091944e-07
 1.753632e-05
 1.874590e-08
 7.840099e-08
 1.945778e-07
 3.013751e-07
 2.670335e-07
 -3.317461e-08
 -1.457739e-07
 6.412318e-07
 9.631854e-08
 0.000000e+00
 0.000000e+00
 -1.590174e-08
 -3.071358e-08
 -4.594627e-08
 -6.916873e-08
 -1.131037e-07
 -1.791148e-07
 -2.396343e-07
 -2.573336e-07
 -2.879025e-07
 1.718429e-05
 -2.573518e-07
 -2.113912e-07
 -2.099748e-07
 -1.975387e-07
 -1.829030e-07
 -1.674044e-07
 -1.509548e-07
 -1.331590e-07
 -1.135639e-07
 -9.169043e-08
 -6.676396e-08
 -3.674910e-08
 3.760599e-09
 6.679190e-08
 1.680923e-07
 2.237163e-07
 -2.492097e-08
 -3.172377e-07
 -3.015896e-07
 -2.080671e-07
 -1.701514e-07
 -1.472908e-07
 -1.053321e-07
 -3.405096e-08
 4.530203e-08
 1.151062e-07
 1.942169e-07
 3.581411e-07
 9.513316e-07
 -8.950336e-08
 -1.481239e-06
 -1.692889e-07
 2.344369e-07
 2.399118e-07
 1.393414e-07
 4.029050e-08
 5.674914e-08
 1.893189e-07
 1.500181e-07
 0.000000e+00
 0.000000e+00
 -1.201847e-08
 -2.454002e-08
 -3.903606e-08
 -5.806606e-08
 -8.225570e-08
 -1.021684e-07
 -8.625331e-08
 5.212536e-08
 6.793783e-07
 -2.336631e-07
 -1.548856e-06
 -4.748330e-07
 -2.985005e-07
 -2.324104e-07
 -1.983090e-07
 -1.751011e-07
 -1.553520e-07
 -1.354866e-07
 -1.133387e-07
 -8.775722e-08
 -5.860491e-08
 -2.617359e-08
 9.810940e-09
 4.898307e-08
 7.994574e-08
 6.108710e-08
 -4.402936e-08
 -1.621996e-07
 -2.058463e-07
 -2.025344e-07
 -2.006781e-07
 -1.990583e-07
 -1.469627e-07
 -1.324948e-08
 1.219276e-07
 1.957178e-07
 2.527006e-07
 3.316886e-07
 3.251824e-07
 -1.098064e-07
 -1.496262e-06
 -1.844630e-07
 8.086174e-07
 1.981531e-07
 3.478184e-08
 -7.596926e-09
 2.849285e-08
 8.520909e-08
 7.450921e-08
 0.000000e+00
 0.000000e+00
 -7.807836e-09
 -1.665744e-08
 -2.744238e-08
 -4.020254e-08
 -5.217682e-08
 -5.456797e-08
 -2.968648e-08
 4.340571e-08
 8.294200e-08
 -1.701404e-07
 -4.563181e-07
 -4.245532e-07
 -3.064783e-07
 -2.417400e-07
 -2.045000e-07
 -1.798377e-07
 -1.600529e-07
 -1.402560e-07
 -1.167373e-07
 -8.748888e-08
 -5.358769e-08
 -1.903989e-08
 1.145110e-08
 3.313119e-08
 3.763823e-08
 1.207251e-08
 -4.588822e-08
 -1.114516e-07
 -1.573326e-07
 -1.855455e-07
 -2.210660e-07
 -3.014182e-07
 -2.992175e-07
 1.093631e-08
 2.868567e-07
 2.880529e-07
 2.768301e-07
 2.988978e-07
 2.717052e-07
 1.564366e-07
 -2.134121e-08
 1.736452e-05
 -1.181358e-07
 -1.160949e-07
 -1.614449e-07
 -1.422813e-07
 -3.171983e-08
 7.196301e-08
 7.199843e-08
 0.000000e+00
 0.000000e+00
 -2.544682e-09
 -6.734327e-09
 -1.345138e-08
 -2.211742e-08
 -3.009698e-08
 -3.269179e-08
 -2.585939e-08
 -1.789495e-08
 -4.909500e-08
 -1.559216e-07
 -2.657256e-07
 -2.915102e-07
 -2.614229e-07
 -2.259462e-07
 -1.992272e-07
 -1.800874e-07
 -1.649006e-07
 -1.489980e-07
 -1.264305e-07
 -9.244694e-08
 -4.928712e-08
 -7.692816e-09
 2.129522e-08
 3.311545e-08
 2.682059e-08
 1.698782e-09
 -3.943032e-08
 -8.699582e-08
 -1.300607e-07
 -1.633055e-07
 -1.973704e-07
 -3.163731e-07
 -1.340493e-06
 -1.058358e-08
 8.956966e-07
 2.987966e-07
 2.579287e-07
 3.200799e-07
 3.409294e-07
 4.063576e-07
 9.378874e-07
 -5.591379e-08
 -1.440401e-06
 -4.537316e-07
 -4.175927e-07
 -4.009743e-07
 -8.436343e-08
 1.937208e-07
 1.437874e-07
 0.000000e+00
 0.000000e+00
 4.492891e-09
 5.960897e-09
 2.841186e-09
 -4.316679e-09
 -1.330015e-08
 -2.170767e-08
 -2.974428e-08
 -4.424777e-08
 -7.822455e-08
 -1.345208e-07
 -1.889050e-07
 -2.146771e-07
 -2.129873e-07
 -1.998001e-07
 -1.861975e-07
 -1.762423e-07
 -1.701662e-07
 -1.644580e-07
 -1.488224e-07
 -1.083886e-07
 -4.341111e-08
 1.772924e-08
 4.890159e-08
 5.098256e-08
 3.539984e-08
 8.816325e-09
 -2.629059e-08
 -6.814035e-08
 -1.140730e-07
 -1.492497e-07
 -1.247331e-07
 -9.283202e-09
 4.514825e-08
 1.748067e-05
 -9.835119e-08
 -1.059326e-07
 1.676139e-07
 4.242728e-07
 3.973335e-07
 3.570764e-07
 3.101357e-07
 -1.057292e-08
 -3.613424e-07
 -4.227043e-07
 -5.132061e-07
 -1.553346e-06
 -1.894485e-07
 8.167498e-07
 2.310396e-07
 0.000000e+00
 0.000000e+00
 1.482461e-08
 2.362886e-08
 2.347498e-08
 1.537534e-08
 2.544016e-09
 -1.225983e-08
 -2.875687e-08
 -4.975229e-08
 -7.877979e-08
 -1.143487e-07
 -1.472162e-07
 -1.677605e-07
 -1.745255e-07
 -1.728259e-07
 -1.689996e-07
 -1.680132e-07
 -1.738615e-07
 -1.883755e-07
 -1.985198e-07
 -1.554399e-07
 -3.305281e-08
 7.935449e-08
 1.070208e-07
 8.514332e-08
 5.427368e-08
 2.446661e-08
 -6.435968e-09
 -4.422015e-08
 -1.005615e-07
 -1.948895e-07
 -1.689966e-07
 2.795049e-07
 1.153675e-06
 1.454871e-07
 -1.422342e-06
 -1.459745e-06
 1.680571e-08
 9.875150e-07
 3.796237e-07
 2.251077e-07
 1.273486e-07
 -1.979469e-08
 -1.619667e-07
 -2.214958e-07
 -2.350231e-07
 -3.399209e-07
 1.711092e-05
 -6.830986e-08
 1.633083e-07
 0.000000e+00
 0.000000e+00
 3.176131e-08
 5.099900e-08
 5.244380e-08
 3.969956e-08
 1.991438e-08
 -1.713817e-09
 -2.352928e-08
 -4.632535e-08
 -7.110858e-08
 -9.676530e-08
 -1.196081e-07
 -1.358710e-07
 -1.445513e-07
 -1.476625e-07
 -1.488304e-07
 -1.528197e-07
 -1.673767e-07
 -2.079832e-07
 -3.018551e-07
 -3.115941e-07
 -8.489068e-09
 2.531398e-07
 2.107402e-07
 1.220071e-07
 7.068798e-08
 4.087658e-08
 1.941246e-08
 -3.745200e-09
 -4.791969e-08
 -1.856861e-07
 -1.193089e-06
 2.304481e-07
 1.206064e-06
 3.335258e-07
 -9.189027e-08
 -1.371107e-07
 1.742206e-05
 1.845724e-08
 7.332595e-08
 5.953911e-08
 2.700795e-08
 -2.889728e-08
 -7.534173e-08
 -6.526179e-08
 5.979749e-08
 5.668191e-07
 -1.379715e-06
 -1.368876e-06
 5.835096e-07
 0.000000e+00
 0.000000e+00
 6.260257e-08
 9.789269e-08
 9.617128e-08
 7.059989e-08
 3.846731e-08
 8.583909e-09
 -1.736748e-08
 -4.050334e-08
 -6.202880e-08
 -8.197031e-08
 -9.913820e-08
 -1.121202e-07
 -1.203794e-07
 -1.245654e-07
 -1.262541e-07
 -1.282593e-07
 -1.373615e-07
 -1.747819e-07
 -3.203640e-07
 -1.364661e-06
 -2.483277e-08
 9.029910e-07
 2.752737e-07
 1.175488e-07
 6.709308e-08
 4.959901e-08
 4.593648e-08
 5.187618e-08
 6.956187e-08
 1.105637e-07
 1.209468e-07
 1.762285e-05
 1.753338e-07
 1.681755e-07
 2.191687e-07
 8.353112e-07
 -4.544180e-08
 -1.332807e-06
 -2.488695e-07
 -8.163251e-08
 -4.255706e-08
 -4.525501e-08
 -4.723651e-08
 -6.839880e-09
 1.145102e-07
 2.400285e-07
 2.521479e-08
 1.723758e-05
 -1.692013e-07
 0.000000e+00
 0.000000e+00
 1.239487e-07
 1.866416e-07
 1.640423e-07
 1.061705e-07
 5.356262e-08
 1.454665e-08
 -1.400020e-08
 -3.606143e-08
 -5.429657e-08
 -6.990877e-08
 -8.302868e-08
 -9.330995e-08
 -1.004208e-07
 -1.041143e-07
 -1.038639e-07
 -9.840880e-08
 -8.573920e-08
 -6.338938e-08
 -2.427547e-08
 -2.868665e-08
 1.744998e-05
 4.520982e-09
 4.184516e-08
 3.330576e-08
 3.698449e-08
 4.639086e-08
 6.370738e-08
 9.682736e-08
 1.680013e-07
 3.537554e-07
 1.016636e-06
 1.258944e-07
 -1.183025e-06
 -1.061359e-07
 1.114569e-07
 2.008806e-07
 -1.871830e-08
 -2.810975e-07
 -2.383268e-07
 -1.231947e-07
 -7.432856e-08
 -6.175584e-08
 -6.065102e-08
 -3.646465e-08
 7.720869e-08
 3.443321e-07
 1.006440e-06
 4.470014e-08
 -1.252716e-06
 0.000000e+00
 0.000000e+00
 2.511749e-07
 3.794053e-07
 2.617263e-07
 1.301104e-07
 5.378479e-08
 1.008105e-08
 -1.686107e-08
 -3.519228e-08
 -4.900167e-08
 -6.026272e-08
 -6.977361e-08
 -7.769826e-08
 -8.383631e-08
 -8.747148e-08
 -8.653048e-08
 -7.575155e-08
 -4.357399e-08
 3.494338e-08
 2.329247e-07
 9.037176e-07
 1.281344e-08
 -1.297643e-06
 -2.282052e-07
 -5.890733e-08
 2.068963e-09
 3.601463e-08
 6.749657e-08
 1.100526e-07
 1.790024e-07
 2.909456e-07
 3.610098e-07
 1.285997e-07
 -1.463299e-07
 -1.085026e-07
 1.002196e-08
 3.841275e-08
 -3.198716e-08
 -1.180329e-07
 -1.307795e-07
 -9.829828e-08
 -7.134439e-08
 -6.597721e-08
 -8.913163e-08
 -1.565938e-07
 -1.199309e-07
 2.577919e-07
 5.409730e-07
 2.391872e-07
 -9.160262e-08
 0.000000e+00
 0.000000e+00
 2.499154e-07
 9.904452e-07
 2.902480e-07
 9.604405e-08
 2.345222e-08
 -9.890489e-09
 -2.771316e-08
 -3.851777e-08
 -4.606795e-08
 -5.226738e-08
 -5.805538e-08
 -6.380605e-08
 -6.955674e-08
 -7.490696e-08
 -7.803585e-08
 -7.268833e-08
 -4.258559e-08
 3.953856e-08
 1.894685e-07
 2.956147e-07
 7.517828e-08
 -2.067899e-07
 -1.825657e-07
 -7.272275e-08
 -1.219747e-08
 2.682813e-08
 6.066022e-08
 9.814565e-08
 1.427956e-07
 1.841392e-07
 1.798516e-07
 9.227512e-08
 -6.200482e-09
 -2.878697e-08
 -7.360815e-09
 -1.543468e-09
 -2.661040e-08
 -5.818733e-08
 -6.879718e-08
 -5.928941e-08
 -4.608097e-08
 -4.390770e-08
 -7.392534e-08
 -2.119148e-07
 -1.244741e-06
 1.041014e-07
 1.005694e-06
 2.898765e-07
 5.520475e-08
 0.000000e+00
 0.000000e+00
 1.742110e-05
 -3.199239e-08
 -8.738321e-09
 -3.047277e-08
 -3.924294e-08
 -4.345593e-08
 -4.494729e-08
 -4.482952e-08
 -4.433377e-08
 -4.459211e-08
 -4.632597e-08
 -4.986236e-08
 -5.549413e-08
 -6.392887e-08
 -7.630654e-08
 -9.183588e-08
 -9.452020e-08
 -3.409189e-08
 1.050031e-07
 1.924760e-07
 1.181919e-07
 -7.638973e-09
 -5.458470e-08
 -3.791455e-08
 -7.393842e-09
 2.173577e-08
 4.953828e-08
 7.736683e-08
 1.033747e-07
 1.188987e-07
 1.094323e-07
 7.116119e-08
 2.774239e-08
 5.129660e-09
 5.631852e-10
 -3.274914e-09
 -1.413385e-08
 -2.590565e-08
 -2.946148e-08
 -2.283586e-08
 -1.015370e-08
 4.272702e-09
 1.931890e-08
 4.233243e-08
 1.649327e-08
 1.747331e-05
 9.591799e-09
 3.207297e-08
 9.934802e-09
 0.000000e+00
 0.000000e+00
 -2.876631e-07
 -1.456080e-06
 -3.459352e-07
 -1.658991e-07
 -1.058752e-07
 -7.970663e-08
 -6.383317e-08
 -5.150373e-08
 -4.176587e-08
 -3.536478e-08
 -3.278539e-08
 -3.390028e-08
 -3.874400e-08
 -4.890147e-08
 -6.980449e-08
 -1.152137e-07
 -2.113767e-07
 -2.224805e-07
 7.249196e-08
 3.060119e-07
 2.130954e-07
 7.655875e-08
 8.008171e-09
 -8.295871e-09
 4.527701e-10
 1.800755e-08
 3.787952e-08
 5.721485e-08
 7.290730e-08
 8.012078e-08
 7.415080e-08
 5.586297e-08
 3.417055e-08
 1.845308e-08
 1.009719e-08
 4.776569e-09
 -2.740304e-10
 -3.462720e-09
 -1.449893e-09
 7.664230e-09
 2.457220e-08
 5.274661e-08
 1.088717e-07
 2.632479e-07
 8.745291e-07
 -7.397470e-08
 -1.394038e-06
 -2.630064e-07
 -4.432126e-08
 0.000000e+00
 0.000000e+00
 -2.087113e-07
 -4.131845e-07
 -3.434931e-07
 -2.128780e-07
 -1.458628e-07
 -1.078510e-07
 -8.001843e-08
 -5.582256e-08
 -3.577059e-08
 -2.218178e-08
 -1.556474e-08
 -1.444837e-08
 -1.726019e-08
 -2.441622e-08
 -4.139415e-08
 -8.864555e-08
 -2.454018e-07
 -1.302496e-06
 2.053035e-08
 9.243579e-07
 2.668266e-07
 8.235596e-08
 1.745907e-08
 -1.188040e-09
 1.168620e-09
 1.247637e-08
 2.666028e-08
 4.032750e-08
 5.079914e-08
 5.551520e-08
 5.292143e-08
 4.409078e-08
 3.287006e-08
 2.331532e-08
 1.703504e-08
 1.346230e-08