<VTKFile type="UnstructuredGrid"  version="0.1"   >
<UnstructuredGrid>  
<Piece  NumberOfPoints="     2601"  NumberOfCells="     5000">  
<Points>  
<DataArray  type="Float64"  NumberOfComponents="3"  format="ascii">  
 0.000000 0.000000 0.000000 
 0.020000 0.000000 0.000000 
 0.040000 0.000000 0.000000 
 0.060000 0.000000 0.000000 
 0.080000 0.000000 0.000000 
 0.100000 0.000000 0.000000 
 0.120000 0.000000 0.000000 
 0.140000 0.000000 0.000000 
 0.160000 0.000000 0.000000 
 0.180000 0.000000 0.000000 
 0.200000 0.000000 0.000000 
 0.220000 0.000000 0.000000 
 0.240000 0.000000 0.000000 
 0.260000 0.000000 0.000000 
 0.280000 0.000000 0.000000 
 0.300000 0.000000 0.000000 
 0.320000 0.000000 0.000000 
 0.340000 0.000000 0.000000 
 0.360000 0.000000 0.000000 
 0.380000 0.000000 0.000000 
 0.400000 0.000000 0.000000 
 0.420000 0.000000 0.000000 
 0.440000 0.000000 0.000000 
 0.460000 0.000000 0.000000 
 0.480000 0.000000 0.000000 
 0.500000 0.000000 0.000000 
 0.520000 0.000000 0.000000 
 0.540000 0.000000 0.000000 
 0.560000 0.000000 0.000000 
 0.580000 0.000000 0.000000 
 0.600000 0.000000 0.000000 
 0.620000 0.000000 0.000000 
 0.640000 0.000000 0.000000 
 0.660000 0.000000 0.000000 
 0.680000 0.000000 0.000000 
 0.700000 0.000000 0.000000 
 0.720000 0.000000 0.000000 
 0.740000 0.000000 0.000000 
 0.760000 0.000000 0.000000 
 0.780000 0.000000 0.000000 
 0.800000 0.000000 0.000000 
 0.820000 0.000000 0.000000 
 0.840000 0.000000 0.000000 
 0.860000 0.000000 0.000000 
 0.880000 0.000000 0.000000 
 0.900000 0.000000 0.000000 
 0.920000 0.000000 0.000000 
 0.940000 0.000000 0.000000 
 0.960000 0.000000 0.000000 
 0.980000 0.000000 0.000000 
 1.000000 0.000000 0.000000 
 0.000000 0.020000 0.000000 
 0.020000 0.020000 0.000000 
 0.040000 0.020000 0.000000 
 0.060000 0.020000 0.000000 
 0.080000 0.020000 0.000000 
 0.100000 0.020000 0.000000 
 0.120000 0.020000 0.000000 
 0.140000 0.020000 0.000000 
 0.160000 0.020000 0.000000 
 0.180000 0.020000 0.000000 
 0.200000 0.020000 0.000000 
 0.220000 0.020000 0.000000 
 0.240000 0.020000 0.000000 
 0.260000 0.020000 0.000000 
 0.280000 0.020000 0.000000 
 0.300000 0.020000 0.000000 
 0.320000 0.020000 0.000000 
 0.340000 0.020000 0.000000 
 0.360000 0.020000 0.000000 
 0.380000 0.020000 0.000000 
 0.400000 0.020000 0.000000 
 0.420000 0.020000 0.000000 
 0.440000 0.020000 0.000000 
 0.460000 0.020000 0.000000 
 0.480000 0.020000 0.000000 
 0.500000 0.020000 0.000000 
 0.520000 0.020000 0.000000 
 0.540000 0.020000 0.000000 
 0.560000 0.020000 0.000000 
 0.580000 0.020000 0.000000 
 0.600000 0.020000 0.000000 
 0.620000 0.020000 0.000000 
 0.640000 0.020000 0.000000 
 0.660000 0.020000 0.000000 
 0.680000 0.020000 0.000000 
 0.700000 0.020000 0.000000 
 0.720000 0.020000 0.000000 
 0.740000 0.020000 0.000000 
 0.760000 0.020000 0.000000 
 0.780000 0.020000 0.000000 
 0.800000 0.020000 0.000000 
 0.820000 0.020000 0.000000 
 0.840000 0.020000 0.000000 
 0.860000 0.020000 0.000000 
 0.880000 0.020000 0.000000 
 0.900000 0.020000 0.000000 
 0.920000 0.020000 0.000000 
 0.940000 0.020000 0.000000 
 0.960000 0.020000 0.000000 
 0.980000 0.020000 0.000000 
 1.000000 0.020000 0.000000 
 0.000000 0.040000 0.000000 
 0.020000 0.040000 0.000000 
 0.040000 0.040000 0.000000 
 0.060000 0.040000 0.000000 
 0.080000 0.040000 0.000000 
 0.100000 0.040000 0.000000 
 0.120000 0.040000 0.000000 
 0.140000 0.040000 0.000000 
 0.160000 0.040000 0.000000 
 0.180000 0.040000 0.000000 
 0.200000 0.040000 0.000000 
 0.220000 0.040000 0.000000 
 0.240000 0.040000 0.000000 
 0.260000 0.040000 0.000000 
 0.280000 0.040000 0.000000 
 0.300000 0.040000 0.000000 
 0.320000 0.040000 0.000000 
 0.340000 0.040000 0.000000 
 0.360000 0.040000 0.000000 
 0.380000 0.040000 0.000000 
 0.400000 0.040000 0.000000 
 0.420000 0.040000 0.000000 
 0.440000 0.040000 0.000000 
 0.460000 0.040000 0.000000 
 0.480000 0.040000 0.000000 
 0.500000 0.040000 0.000000 
 0.520000 0.040000 0.000000 
 0.540000 0.040000 0.000000 
 0.560000 0.040000 0.000000 
 0.580000 0.040000 0.000000 
 0.600000 0.040000 0.000000 
 0.620000 0.040000 0.000000 
 0.640000 0.040000 0.000000 
 0.660000 0.040000 0.000000 
 0.680000 0.040000 0.000000 
 0.700000 0.040000 0.000000 
 0.720000 0.040000 0.000000 
 0.740000 0.040000 0.000000 
 0.760000 0.040000 0.000000 
 0.780000 0.040000 0.000000 
 0.800000 0.040000 0.000000 
 0.820000 0.040000 0.000000 
 0.840000 0.040000 0.000000 
 0.860000 0.040000 0.000000 
 0.880000 0.040000 0.000000 
 0.900000 0.040000 0.000000 
 0.920000 0.040000 0.000000 
 0.940000 0.040000 0.000000 
 0.960000 0.040000 0.000000 
 0.980000 0.040000 0.000000 
 1.000000 0.040000 0.000000 
 0.000000 0.060000 0.000000 
 0.020000 0.060000 0.000000 
 0.040000 0.060000 0.000000 
 0.060000 0.060000 0.000000 
 0.080000 0.060000 0.000000 
 0.100000 0.060000 0.000000 
 0.120000 0.060000 0.000000 
 0.140000 0.060000 0.000000 
 0.160000 0.060000 0.000000 
 0.180000 0.060000 0.000000 
 0.200000 0.060000 0.000000 
 0.220000 0.060000 0.000000 
 0.240000 0.060000 0.000000 
 0.260000 0.060000 0.000000 
 0.280000 0.060000 0.000000 
 0.300000 0.060000 0.000000 
 0.320000 0.060000 0.000000 
 0.340000 0.060000 0.000000 
 0.360000 0.060000 0.000000 
 0.380000 0.060000 0.000000 
 0.400000 0.060000 0.000000 
 0.420000 0.060000 0.000000 
 0.440000 0.060000 0.000000 
 0.460000 0.060000 0.000000 
 0.480000 0.060000 0.000000 
 0.500000 0.060000 0.000000 
 0.520000 0.060000 0.000000 
 0.540000 0.060000 0.000000 
 0.560000 0.060000 0.000000 
 0.580000 0.060000 0.000000 
 0.600000 0.060000 0.000000 
 0.620000 0.060000 0.000000 
 0.640000 0.060000 0.000000 
 0.660000 0.060000 0.000000 
 0.680000 0.060000 0.000000 
 0.700000 0.060000 0.000000 
 0.720000 0.060000 0.000000 
 0.740000 0.060000 0.000000 
 0.760000 0.060000 0.000000 
 0.780000 0.060000 0.000000 
 0.800000 0.060000 0.000000 
 0.820000 0.060000 0.000000 
 0.840000 0.060000 0.000000 
 0.860000 0.060000 0.000000 
 0.880000 0.060000 0.000000 
 0.900000 0.060000 0.000000 
 0.920000 0.060000 0.000000 
 0.940000 0.060000 0.000000 
 0.960000 0.060000 0.000000 
 0.980000 0.060000 0.000000 
 1.000000 0.060000 0.000000 
 0.000000 0.080000 0.000000 
 0.020000 0.080000 0.000000 
 0.040000 0.080000 0.000000 
 0.060000 0.080000 0.000000 
 0.080000 0.080000 0.000000 
 0.100000 0.080000 0.000000 
 0.120000 0.080000 0.000000 
 0.140000 0.080000 0.000000 
 0.160000 0.080000 0.000000 
 0.180000 0.080000 0.000000 
 0.200000 0.080000 0.000000 
 0.220000 0.080000 0.000000 
 0.240000 0.080000 0.000000 
 0.260000 0.080000 0.000000 
 0.280000 0.080000 0.000000 
 0.300000 0.080000 0.000000 
 0.320000 0.080000 0.000000 
 0.340000 0.080000 0.000000 
 0.360000 0.080000 0.000000 
 0.380000 0.080000 0.000000 
 0.400000 0.080000 0.000000 
 0.420000 0.080000 0.000000 
 0.440000 0.080000 0.000000 
 0.460000 0.080000 0.000000 
 0.480000 0.080000 0.000000 
 0.500000 0.080000 0.000000 
 0.520000 0.080000 0.000000 
 0.540000 0.080000 0.000000 
 0.560000 0.080000 0.000000 
 0.580000 0.080000 0.000000 
 0.600000 0.080000 0.000000 
 0.620000 0.080000 0.000000 
 0.640000 0.080000 0.000000 
 0.660000 0.080000 0.000000 
 0.680000 0.080000 0.000000 
 0.700000 0.080000 0.000000 
 0.720000 0.080000 0.000000 
 0.740000 0.080000 0.000000 
 0.760000 0.080000 0.000000 
 0.780000 0.080000 0.000000 
 0.800000 0.080000 0.000000 
 0.820000 0.080000 0.000000 
 0.840000 0.080000 0.000000 
 0.860000 0.080000 0.000000 
 0.880000 0.080000 0.000000 
 0.900000 0.080000 0.000000 
 0.920000 0.080000 0.000000 
 0.940000 0.080000 0.000000 
 0.960000 0.080000 0.000000 
 0.980000 0.080000 0.000000 
 1.000000 0.080000 0.000000 
 0.000000 0.100000 0.000000 
 0.020000 0.100000 0.000000 
 0.040000 0.100000 0.000000 
 0.060000 0.100000 0.000000 
 0.080000 0.100000 0.000000 
 0.100000 0.100000 0.000000 
 0.120000 0.100000 0.000000 
 0.140000 0.100000 0.000000 
 0.160000 0.100000 0.000000 
 0.180000 0.100000 0.000000 
 0.200000 0.100000 0.000000 
 0.220000 0.100000 0.000000 
 0.240000 0.100000 0.000000 
 0.260000 0.100000 0.000000 
 0.280000 0.100000 0.000000 
 0.300000 0.100000 0.000000 
 0.320000 0.100000 0.000000 
 0.340000 0.100000 0.000000 
 0.360000 0.100000 0.000000 
 0.380000 0.100000 0.000000 
 0.400000 0.100000 0.000000 
 0.420000 0.100000 0.000000 
 0.440000 0.100000 0.000000 
 0.460000 0.100000 0.000000 
 0.480000 0.100000 0.000000 
 0.500000 0.100000 0.000000 
 0.520000 0.100000 0.000000 
 0.540000 0.100000 0.000000 
 0.560000 0.100000 0.000000 
 0.580000 0.100000 0.000000 
 0.600000 0.100000 0.000000 
 0.620000 0.100000 0.000000 
 0.640000 0.100000 0.000000 
 0.660000 0.100000 0.000000 
 0.680000 0.100000 0.000000 
 0.700000 0.100000 0.000000 
 0.720000 0.100000 0.000000 
 0.740000 0.100000 0.000000 
 0.760000 0.100000 0.000000 
 0.780000 0.100000 0.000000 
 0.800000 0.100000 0.000000 
 0.820000 0.100000 0.000000 
 0.840000 0.100000 0.000000 
 0.860000 0.100000 0.000000 
 0.880000 0.100000 0.000000 
 0.900000 0.100000 0.000000 
 0.920000 0.100000 0.000000 
 0.940000 0.100000 0.000000 
 0.960000 0.100000 0.000000 
 0.980000 0.100000 0.000000 
 1.000000 0.100000 0.000000 
 0.000000 0.120000 0.000000 
 0.020000 0.120000 0.000000 
 0.040000 0.120000 0.000000 
 0.060000 0.120000 0.000000 
 0.080000 0.120000 0.000000 
 0.100000 0.120000 0.000000 
 0.120000 0.120000 0.000000 
 0.140000 0.120000 0.000000 
 0.160000 0.120000 0.000000 
 0.180000 0.120000 0.000000 
 0.200000 0.120000 0.000000 
 0.220000 0.120000 0.000000 
 0.240000 0.120000 0.000000 
 0.260000 0.120000 0.000000 
 0.280000 0.120000 0.000000 
 0.300000 0.120000 0.000000 
 0.320000 0.120000 0.000000 
 0.340000 0.120000 0.000000 
 0.360000 0.120000 0.000000 
 0.380000 0.120000 0.000000 
 0.400000 0.120000 0.000000 
 0.420000 0.120000 0.000000 
 0.440000 0.120000 0.000000 
 0.460000 0.120000 0.000000 
 0.480000 0.120000 0.000000 
 0.500000 0.120000 0.000000 
 0.520000 0.120000 0.000000 
 0.540000 0.120000 0.000000 
 0.560000 0.120000 0.000000 
 0.580000 0.120000 0.000000 
 0.600000 0.120000 0.000000 
[...]
<PointData  Scalars="U"> 
<DataArray  type="Float64"  Name="U"  format="ascii"> 
 0.000000e+00
 0.000000e+00
 0.000000e+00
 0.000000e+00
 0.000000e+00
 0.000000e+00
 0.000000e+00
 0.000000e+00
 0.000000e+00
 0.000000e+00
 0.000000e+00
 0.000000e+00
 0.000000e+00
 0.000000e+00
 0.000000e+00
 0.000000e+00
 0.000000e+00
 0.000000e+00
 0.000000e+00
 0.000000e+00
 0.000000e+00
 0.000000e+00
 0.000000e+00
 0.000000e+00
 0.000000e+00
 0.000000e+00
 0.000000e+00
 0.000000e+00
 0.000000e+00
 0.000000e+00
 0.000000e+00
 0.000000e+00
 0.000000e+00
 0.000000e+00
 0.000000e+00
 0.000000e+00
 0.000000e+00
 0.000000e+00
 0.000000e+00
 0.000000e+00
 0.000000e+00
 0.000000e+00
 0.000000e+00
 0.000000e+00
 0.000000e+00
 0.000000e+00
 0.000000e+00
 0.000000e+00
 0.000000e+00
 0.000000e+00
 0.000000e+00
 0.000000e+00
 -5.017589e-10
 -9.391834e-10
 -1.113622e-09
 -5.540192e-10
 1.548177e-09
 6.163458e-09
 1.391259e-08
 2.443140e-08
 3.576085e-08
 4.188759e-08
 1.876720e-08
 -1.446106e-07
 -1.377043e-06
 -1.257304e-06
 7.666551e-07
 9.184896e-07
 1.164309e-07
 -5.747086e-08
 -9.682228e-08
 -1.102027e-07
 -1.246299e-07
 -1.494849e-07
 -1.934320e-07
 -2.737716e-07
 -4.354064e-07
 -8.181415e-07
 -1.956636e-06
 -5.675450e-06
 -6.699953e-06
 3.080046e-05
 -2.133956e-06
 -1.294781e-06
 -9.061118e-07
 -8.375724e-07
 -1.795023e-06
 -3.966509e-07
 7.487371e-07
 1.972758e-07
 -9.314228e-08
 5.281069e-09
 1.558749e-07
 7.235400e-08
 -1.306285e-08
 -3.941850e-08
 -3.633882e-08
 -2.393112e-08
 -1.234354e-08
 -4.997063e-09
 -1.386337e-09
 0.000000e+00
 0.000000e+00
 -1.045986e-09
 -2.094497e-09
 -2.898169e-09
 -2.612457e-09
 5.293937e-10
 9.020672e-09
 2.481401e-08
 4.759567e-08
 7.473754e-08
 1.033953e-07
 1.313210e-07
 1.575564e-07
 1.126775e-07
 1.745854e-05
 1.734863e-05
 -1.647084e-07
 -1.856833e-07
 -2.080162e-07
 -2.101033e-07
 -2.173223e-07
 -2.388524e-07
 -2.811151e-07
 -3.541382e-07
 -4.779452e-07
 -6.941597e-07
 -1.085892e-06
 -1.756934e-06
 -2.544726e-06
 1.555319e-05
 -3.333782e-06
 -5.039905e-06
 -2.208431e-06
 -1.528379e-06
 -1.270877e-06
 -1.001691e-06
 1.598074e-05
 -2.489518e-09
 6.347908e-07
 -1.213537e-06
 -1.203814e-07
 7.164205e-07
 6.165751e-08
 -8.721878e-08
 -1.057813e-07
 -8.041950e-08
 -4.591873e-08
 -1.979847e-08
 -6.045557e-09
 -1.041053e-09
 0.000000e+00
 0.000000e+00
 -1.549737e-09
 -3.396573e-09
 -5.605185e-09
 -7.370551e-09
 -5.905138e-09
 4.143969e-09
 2.825451e-08
 6.640750e-08
 1.124237e-07
 1.653223e-07
 2.478797e-07
 4.534270e-07
 1.216931e-06
 8.781008e-07
 -1.430858e-06
 -1.751816e-06
 -5.648877e-07
 -3.714762e-07
 -3.161113e-07
 -3.098277e-07
 -3.329379e-07
 -3.835117e-07
 -4.673535e-07
 -5.966125e-07
 -7.879847e-07
 -1.045757e-06
 -1.277837e-06
 -9.723115e-07
 -2.054055e-06
 -3.725539e-06
 -2.807161e-06
 -2.144911e-06
 -1.622831e-06
 -2.257308e-06
 -1.093772e-06
 3.401000e-07
 1.683117e-05
 -3.056103e-07
 -3.268371e-07
 1.712126e-05
 -3.278696e-07
 -2.809403e-07
 -2.642539e-07
 -2.106087e-07
 -1.313081e-07
 -5.704410e-08
 -1.361147e-08
 1.680172e-09
 3.055849e-09
 0.000000e+00
 0.000000e+00
 -1.730078e-09
 -4.209695e-09
 -8.420769e-09
 -1.484280e-08
 -2.075916e-08
 -1.584278e-08
 1.618608e-08
 7.811045e-08
 1.468749e-07
 2.060039e-07
 2.747021e-07
 3.915492e-07
 4.941717e-07
 2.441425e-07
 -3.484854e-07
 -6.608591e-07
 -5.655256e-07
 -4.328332e-07
 -3.808177e-07
 -3.751543e-07
 -4.006777e-07
 -4.536890e-07
 -5.361832e-07
 -6.525378e-07
 -8.044844e-07
 -9.792651e-07
 -1.135646e-06
 -1.304256e-06
 -1.716679e-06
 -2.119639e-06
 -2.048831e-06
 -1.644623e-06
 -1.148927e-06
 -6.812641e-07
 1.720781e-05
 1.777365e-05
 -7.021198e-07
 -1.751972e-06
 9.066576e-08
 -5.702747e-07
 -1.786988e-06
 -6.740496e-07
 -4.762888e-07
 -3.466792e-07
 -1.761560e-07
 -3.086920e-08
 2.232182e-08
 2.196648e-08
 1.065990e-08
 0.000000e+00
 0.000000e+00
 -1.226269e-09
 -3.262179e-09
 -8.574310e-09
 -2.145813e-08
 -4.473689e-08
 -6.518809e-08
 -3.199925e-08
 8.426651e-08
 1.985901e-07
 2.409888e-07
 2.496327e-07
 2.540414e-07
 2.111715e-07
 4.268657e-08
 -2.136238e-07
 -3.938859e-07
 -4.356300e-07
 -4.164942e-07
 -4.027806e-07
 -4.110389e-07
 -4.418073e-07
 -4.948212e-07
 -5.709074e-07
 -6.707671e-07
 -7.923224e-07
 -9.281107e-07
 -1.071169e-06
 -1.236625e-06
 -1.437021e-06
 -1.572546e-06
 -1.506841e-06
 -1.220560e-06
 -7.027024e-07
 4.165946e-07
 4.213342e-07
 -1.689596e-06
 -2.143902e-06
 -1.056397e-06
 -6.726833e-07
 -6.588665e-07
 -8.090349e-07
 -7.296357e-07
 -6.510880e-07
 -5.603089e-07
 -1.934851e-07
 1.142084e-07
 1.077002e-07
 4.684811e-08
 1.614508e-08
 0.000000e+00
 0.000000e+00
 -2.310351e-10
 5.774902e-10
 -1.130572e-09
 -1.592459e-08
 -6.253775e-08
 -1.683551e-07
 -1.929149e-07
 9.670429e-08
 3.495616e-07
 3.042169e-07
 2.148621e-07
 1.525074e-07
 7.764915e-08
 -3.896433e-08
 -1.805077e-07
 -2.960247e-07
 -3.586488e-07
 -3.846654e-07
 -4.012558e-07
 -4.245320e-07
 -4.609304e-07
 -5.128986e-07
 -5.814228e-07
 -6.662456e-07
 -7.651981e-07
 -8.741591e-07
 -9.892261e-07
 -1.107259e-06
 -1.212134e-06
 -1.257337e-06
 -1.189922e-06
 -9.877920e-07
 -6.556873e-07
 -3.060517e-07
 -3.299027e-07
 -7.792779e-07
 -1.054920e-06
 -9.416458e-07
 -7.540854e-07
 -6.750423e-07
 -6.521139e-07
 -6.175806e-07
 -6.703098e-07
 -1.637277e-06
 -2.359733e-07
 7.447094e-07
 1.617539e-07
 3.766769e-08
 8.308874e-09
 0.000000e+00
 0.000000e+00
 -1.117544e-09
 5.706767e-09
 1.813600e-08
 1.954371e-08
 -2.098555e-08
 -1.836441e-07
 -1.252241e-06
 6.316476e-08
 9.700909e-07
 3.244033e-07
 1.467606e-07
 6.533810e-08
 -4.980124e-09
 -8.802093e-08
 -1.790828e-07
 -2.601505e-07
 -3.193853e-07
 -3.596232e-07
 -3.914229e-07
 -4.243569e-07
 -4.643003e-07
 -5.142377e-07
 -5.753089e-07
 -6.471885e-07
 -7.280669e-07
 -8.147204e-07
 -9.026018e-07
 -9.843109e-07
 -1.045211e-06
 -1.061871e-06
 -1.011779e-06
 -8.884721e-07
 -7.159494e-07
 -5.713261e-07
 -5.624306e-07
 -6.813551e-07
 -7.774641e-07
 -7.685541e-07
 -7.030415e-07
 -6.282394e-07
 -5.428649e-07
 -4.474458e-07
 -3.506038e-07
 -3.092747e-07
 1.721977e-05
 -1.656225e-07
 -7.059556e-08
 -3.828240e-08
 -1.440983e-08
 0.000000e+00
 0.000000e+00
 -1.184938e-08
 2.566239e-09
 4.669756e-08
 9.223109e-08
 1.140171e-07
 1.228218e-07
 7.692744e-08
 1.751654e-05
 3.867279e-08
 4.781188e-08
 9.447588e-09
 -2.552775e-08
 -7.023736e-08
 -1.265336e-07
 -1.890792e-07
 -2.491009e-07
 -3.003989e-07
 -3.426299e-07
 -3.797474e-07
 -4.166980e-07
 -4.573919e-07
 -5.042107e-07
 -5.581347e-07
 -6.188874e-07
 -6.849799e-07
 -7.536983e-07
 -8.209004e-07
 -8.802888e-07
 -9.225119e-07
 -9.360327e-07
 -9.114074e-07
 -8.477308e-07
 -7.594200e-07
 -6.777920e-07
 -6.326181e-07
 -6.246819e-07
 -6.342443e-07
 -6.473830e-07
 -6.496956e-07
 -5.944603e-07
 -4.472566e-07
 -2.699922e-07
 -5.506866e-08
 6.078361e-07
 -2.497054e-07
 -1.477583e-06
 -3.203938e-07
 -9.985965e-08
 -2.652764e-08
 0.000000e+00
 0.000000e+00
 -5.276198e-08
 -3.744128e-08
 7.461365e-08
 1.959541e-07
 2.680081e-07
 4.001859e-07
 9.983761e-07
 5.018280e-08
 -1.301190e-06
 -2.639785e-07
 -1.269377e-07
 -1.052394e-07
 -1.226335e-07
 -1.581251e-07
 -2.021252e-07
 -2.479178e-07
 -2.912398e-07
 -3.308633e-07
 -3.680184e-07
 -4.050267e-07
 -4.441271e-07
 -4.868724e-07
 -5.339303e-07
 -5.850460e-07
 -6.390459e-07
 -6.938483e-07
 -7.464548e-07
 -7.929529e-07
 -8.288048e-07
 -8.497518e-07
 -8.526909e-07
 -8.351186e-07
 -7.965233e-07
 -7.415005e-07
 -6.614776e-07
 -5.526511e-07
 -4.887912e-07
 -5.290450e-07
 -6.522065e-07
 -6.797094e-07
 -3.714882e-07
 -7.451596e-08
 -3.773942e-08
 -6.813944e-08
 -2.792849e-07
 -4.006899e-07
 -2.092263e-07
 -4.089269e-08
 1.425065e-09
 0.000000e+00
 0.000000e+00
 -1.641260e-07
 -2.041393e-07
 9.933791e-08
 3.834219e-07
 3.859300e-07
 3.773383e-07
 3.606665e-07
 6.563637e-08
 -2.567331e-07
 -2.596968e-07
 -1.775745e-07
 -1.519616e-07
 -1.581814e-07
 -1.815142e-07
 -2.137776e-07
 -2.497559e-07
 -2.862128e-07
 -3.217375e-07
 -3.564041e-07
 -3.911375e-07
 -4.270661e-07
 -4.650670e-07
 -5.055147e-07
 -5.481697e-07
 -5.921576e-07
 -6.360355e-07
 -6.779914e-07
 -7.163007e-07
 -7.502589e-07
 -7.815722e-07
 -8.144546e-07
 -8.455537e-07
 -8.470963e-07
 -8.268483e-07
 -7.403110e-07
 -4.319073e-07
 -2.184171e-07
 -3.344223e-07
 -5.873305e-07
 -1.684743e-06
 -3.649815e-07
 5.519521e-07
 -1.139415e-07
 -3.979222e-07
 -5.156316e-07
 -2.146966e-07
 1.284281e-07
 1.418060e-07
 6.405906e-08
 0.000000e+00
 0.000000e+00
 -2.296636e-07
 -1.298819e-06
 6.255004e-08
 1.027945e-06
 4.265978e-07
 2.730503e-07
 1.744542e-07
 2.669056e-08
 -1.154732e-07
 -1.713287e-07
 -1.718768e-07
 -1.690516e-07
 -1.775961e-07
 -1.963913e-07
 -2.220270e-07
 -2.514295e-07
 -2.823756e-07
 -3.136110e-07
 -3.447508e-07
 -3.760050e-07
 -4.078456e-07
 -4.407101e-07
 -4.747838e-07
 -5.098627e-07
 -5.453109e-07
 -5.801458e-07
 -6.133260e-07
 -6.444121e-07
 -6.749669e-07
 -7.114824e-07
 -7.711915e-07
 -8.887053e-07
 -9.491683e-07
 -8.042264e-07
 -1.597261e-06
 -3.045299e-07
 5.396880e-07
 -1.203859e-07
 -2.664217e-07
 -3.329624e-07
 1.712186e-05
 -3.494454e-07
 -3.953889e-07
 -6.703348e-07
 -1.773842e-06
 -1.771537e-07
 9.952762e-07
 3.346612e-07
 1.036221e-07
 0.000000e+00
 0.000000e+00
 -3.696235e-08
 -5.617246e-08
 1.750175e-05
 1.403726e-07
 1.867879e-07
 1.359682e-07
 7.018781e-08
 -1.224008e-08
 -8.981895e-08
 -1.384038e-07
 -1.606444e-07
 -1.730766e-07
 -1.865884e-07
 -2.045182e-07
 -2.266573e-07
 -2.517275e-07
 -2.783991e-07
 -3.056810e-07
 -3.330250e-07
 -3.602784e-07
 -3.875567e-07
 -4.150768e-07
 -4.429722e-07
 -4.711231e-07
 -4.990586e-07
 -5.259921e-07
 -5.510499e-07
 -5.737963e-07
 -5.953821e-07
 -6.215267e-07
 -6.725227e-07
 -8.265171e-07
 -1.870311e-06
 -5.097593e-07
 4.053392e-07
 1.726487e-05
 -3.054280e-07
 -2.430683e-07
 -7.964494e-08
 5.817607e-07
 -3.037947e-07
 -1.606976e-06
 -5.586587e-07
 -5.186449e-07
 -1.541940e-06
 1.727467e-05
 7.604302e-07
 1.849468e-07
 3.770211e-08
 0.000000e+00
 0.000000e+00
 5.285066e-08
 6.581799e-07
 2.755864e-08
 -1.049580e-06
 -4.352727e-08
 1.336343e-08
 -1.171830e-08
 -5.520410e-08
 -9.948558e-08
 -1.341259e-07
 -1.575691e-07
 -1.746761e-07
 -1.906473e-07
 -2.082956e-07
 -2.283630e-07
 -2.504874e-07
 -2.738903e-07
 -2.977569e-07
 -3.214355e-07
 -3.445442e-07
 -3.670119e-07
 -3.890243e-07
 -4.108426e-07
 -4.325409e-07
 -4.537864e-07
 -4.737729e-07
 -4.913106e-07
 -5.049664e-07
 -5.130797e-07
 -5.133028e-07
 -5.005367e-07
 -4.578753e-07
 -4.184570e-07
 1.722687e-05
 4.390155e-07
 -3.987822e-07
 -1.670469e-06
 -5.156045e-07
 -2.132432e-07
 -6.005612e-08
 -2.344842e-07
 -4.487507e-07
 -3.222414e-07
 1.694927e-09
 6.955282e-07
 1.729614e-05
 -1.440114e-06
 -3.041684e-07
 -1.076816e-07
 0.000000e+00
 0.000000e+00
 -7.283886e-08
 -1.080329e-06
 -3.981595e-09
 6.218343e-07
 5.566388e-09
 -5.993970e-08
 -7.840523e-08
 -9.792211e-08
 -1.205814e-07
 -1.422243e-07
 -1.607416e-07
 -1.769250e-07
 -1.926764e-07
 -2.094811e-07
 -2.279511e-07
 -2.479676e-07
 -2.689471e-07
 -2.900674e-07
 -3.104705e-07
 -3.294976e-07
 -3.469377e-07
 -3.631332e-07
 -3.787604e-07
 -3.943280e-07
 -4.097075e-07
 -4.239651e-07
 -4.354258e-07
 -4.415976e-07
 -4.383340e-07
 -4.167325e-07
 -3.523145e-07
 -1.618960e-07
 5.339352e-07
 -2.681076e-07
 -1.502350e-06
 -6.309938e-07
 -6.828883e-07
 -5.227133e-07
 -3.128183e-07
 -2.083478e-07
 -2.076067e-07
 -2.086215e-07
 -8.232983e-08
 2.415910e-07
 9.985619e-07
 -1.048930e-07
 -1.661636e-06
 -5.200773e-07
 -1.881593e-07
 0.000000e+00
 0.000000e+00
 7.135355e-08
 4.287478e-08
 1.741139e-05
 -1.529235e-07
 -1.550618e-07
 -1.527548e-07
 -1.395660e-07
 -1.369248e-07
 -1.432103e-07
 -1.540035e-07
 -1.664128e-07
 -1.795012e-07
 -1.934907e-07
 -2.088776e-07
 -2.259174e-07
 -2.444459e-07
 -2.638556e-07
 -2.831272e-07
 -3.009599e-07
 -3.161403e-07
 -3.281733e-07
 -3.377815e-07
 -3.466214e-07
 -3.561609e-07
 -3.666300e-07
 -3.768368e-07
 -3.846041e-07
 -3.870293e-07
 -3.799357e-07
 -3.560000e-07
 -3.012935e-07
 -1.972765e-07
 -1.235090e-07
 -3.384677e-07
 -6.058123e-07
 -6.063676e-07
 -5.210550e-07
 -4.227531e-07
 -3.132427e-07
 -2.277650e-07
 -1.730007e-07
 -1.177447e-07
 -1.697549e-08
 1.431935e-07
 2.310270e-07
 -5.613853e-08
 -3.920204e-07
 -3.401454e-07
 -1.519590e-07
 0.000000e+00
 0.000000e+00
 2.296455e-07
 8.753410e-07
 -7.301911e-08
 -1.440848e-06
 -4.029621e-07
 -2.433203e-07
 -1.877431e-07
 -1.668263e-07
 -1.616678e-07
 -1.645228e-07
 -1.715975e-07
 -1.812090e-07
 -1.928578e-07
 -2.065476e-07
 -2.223202e-07
 -2.399723e-07
 -2.588485e-07
 -2.776309e-07
 -2.942227e-07
 -3.061585e-07
 -3.120185e-07
 -3.131639e-07
 -3.135458e-07
 -3.168076e-07
 -3.236568e-07
 -3.320503e-07
 -3.389478e-07
 -3.415105e-07
 -3.372872e-07
 -3.242708e-07
 -3.031337e-07
 -2.880727e-07
 -3.249321e-07
 -4.451390e-07
 -5.390691e-07
 -4.936528e-07
 -3.969900e-07
 -3.377436e-07
 -2.833461e-07
 -2.093203e-07
 -1.358826e-07
 -7.772899e-08
 -2.376892e-08
 2.784941e-08
 3.743973e-08
 -3.623464e-08
 -1.219849e-07
 -1.262480e-07
 -6.990877e-08
 0.000000e+00
 0.000000e+00
 1.401000e-07
 2.028566e-07
 -5.878801e-08
 -3.682381e-07
 -3.592563e-07
 -2.580471e-07
 -2.064940e-07
 -1.823082e-07
 -1.726802e-07
 -1.711603e-07
 -1.744376e-07
 -1.809568e-07
 -1.901849e-07
 -2.020916e-07
 -2.167692e-07
 -2.341633e-07
 -2.537916e-07
 -2.742307e-07
 -2.922956e-07
 -3.027759e-07
 -3.011107e-07
 -2.892478e-07
 -2.769982e-07
 -2.733622e-07
 -2.789994e-07
 -2.888271e-07
 -2.976988e-07
 -3.028087e-07
 -3.036790e-07
 -3.023215e-07
 -3.055380e-07
 -3.303755e-07
 -4.082431e-07
 -5.726666e-07
 -6.646746e-07
 -4.267643e-07
 -2.047491e-07
 -2.551131e-07
 -2.830162e-07
 -1.879988e-07
 -7.717545e-08
 -3.524184e-08
 -3.687575e-08
 -5.066204e-08
 -4.499674e-08
 1.821653e-09
 3.674543e-08
 2.579476e-08
 7.250759e-09
 0.000000e+00
 0.000000e+00
 4.221937e-08
 2.777265e-08
 -7.941642e-08
 -2.000913e-07
 -2.400979e-07
 -2.234855e-07
 -1.999150e-07
 -1.841943e-07
 -1.760593e-07
 -1.732790e-07
 -1.742019e-07
 -1.780755e-07
 -1.848503e-07
 -1.948402e-07
 -2.084367e-07
 -2.259758e-07
 -2.476257e-07
 -2.727810e-07
 -2.979195e-07
 -3.127470e-07
 -3.021104e-07
 -2.655344e-07
 -2.300527e-07
 -2.196232e-07
 -2.302758e-07
 -2.470195e-07
 -2.605897e-07
 -2.687020e-07
 -2.729886e-07
 -2.774734e-07
 -2.891750e-07
 -3.209201e-07
 -3.991736e-07
 -6.021386e-07
 -1.709375e-06
 -4.277287e-07
 4.400347e-07
 -2.805260e-07
 -4.378220e-07
 -1.756133e-07
 7.757430e-08
 4.534954e-08
 -3.703694e-08
 -1.461461e-07
 -1.891981e-07
 5.699147e-08
 2.601543e-07
 1.772566e-07
 6.761566e-08
 0.000000e+00
 0.000000e+00
 -9.095482e-10
 -2.632144e-08
 -8.230181e-08
 -1.429915e-07
 -1.785043e-07
 -1.873322e-07
 -1.838869e-07
 -1.783688e-07
 -1.742200e-07
 -1.718549e-07
 -1.711363e-07
 -1.723519e-07
 -1.763083e-07
 -1.839705e-07
 -1.961445e-07
 -2.135894e-07
 -2.375503e-07
 -2.701363e-07
 -3.123342e-07
 -3.506157e-07
 -3.355142e-07
 -2.399424e-07
 -1.516520e-07
 -1.432703e-07
 -1.769704e-07
 -2.096059e-07
 -2.295276e-07
 -2.387610e-07
 -2.425417e-07
 -2.462964e-07
 -2.545836e-07
 -2.704468e-07
 -2.933527e-07
 -3.113661e-07
 -3.728437e-07
 1.705950e-05
 -4.325742e-07
 -5.279543e-07
 -1.566762e-06
 -2.283730e-07
 6.878326e-07
 8.152587e-08
 -1.407628e-08
 -1.293666e-07
 -1.201918e-06
 7.185463e-08
 9.381355e-07
 2.670984e-07
 8.034768e-08
 0.000000e+00
 0.000000e+00
 -1.668750e-08
 -4.280536e-08
 -7.956794e-08
 -1.177230e-07
 -1.462654e-07
 -1.620386e-07
 -1.687044e-07
 -1.707371e-07
 -1.705445e-07
 -1.688789e-07
 -1.662364e-07
 -1.639123e-07
 -1.640201e-07
 -1.685670e-07
 -1.786619e-07
 -1.948736e-07
 -2.188879e-07
 -2.564177e-07
 -3.219599e-07
 -4.422123e-07
 -4.790939e-07
 -2.027400e-07
 3.417166e-08
 -2.876817e-08
 -1.311935e-07
 -1.866147e-07
 -2.095308e-07
 -2.142663e-07
 -2.119604e-07
 -2.103676e-07
 -2.119379e-07
 -2.114870e-07
 -1.872760e-07
 -5.945818e-08
 5.463421e-07
 -3.746379e-07
 -1.655765e-06
 -4.985395e-07
 -2.919281e-07
 1.723042e-05
 -2.854758e-07
 -2.578459e-07
 3.041557e-08
 2.949650e-07
 2.105220e-07
 1.756725e-05
 4.709958e-08
 4.304776e-08
 1.194826e-08
 0.000000e+00
 0.000000e+00
 -2.151983e-08
 -4.648953e-08
 -7.511047e-08
 -1.037936e-07
 -1.280702e-07
 -1.458471e-07
 -1.577139e-07
 -1.650350e-07
 -1.683106e-07
 -1.670452e-07
 -1.611866e-07
 -1.530192e-07
 -1.471051e-07
 -1.474885e-07
 -1.552187e-07
 -1.689748e-07
 -1.881017e-07
 -2.172843e-07
 -2.772935e-07
 -4.481319e-07
 -1.519898e-06
 -2.083992e-07
 6.919850e-07
 3.974604e-08
 -1.365415e-07
 -1.951613e-07
 -2.072882e-07
 -1.963012e-07
 -1.797546e-07
 -1.701283e-07
 -1.691804e-07
 -1.694114e-07
 -1.563349e-07
 -1.117642e-07
 -1.103756e-07
 -3.736053e-07
 -5.495369e-07
 -1.854267e-07
 7.223799e-07
 -1.134840e-07
 -1.557938e-06
 -1.525740e-06
 2.436318e-08
 1.158935e-06
 1.175574e-06
 9.885523e-08
 -1.280060e-06
 -2.359887e-07
 -7.143159e-08
 0.000000e+00
 0.000000e+00
 -2.227821e-08
 -4.577034e-08
 -7.043289e-08
 -9.477499e-08
 -1.168910e-07
 -1.356781e-07
 -1.510783e-07
 -1.631642e-07
 -1.706695e-07
 -1.702553e-07
 -1.589271e-07
 -1.397749e-07
 -1.232842e-07
 -1.186010e-07
 -1.258361e-07
 -1.384882e-07
 -1.493808e-07
 -1.541434e-07
 -1.516321e-07
 -1.370643e-07
 -1.707481e-07
 1.727623e-05
 -2.012721e-07
 -1.953358e-07
 -2.321433e-07
 -2.451043e-07
 -2.281627e-07
 -1.831540e-07
 -1.385177e-07
 -1.196740e-07
 -1.242441e-07
 -1.391918e-07
 -1.599949e-07
 -2.027748e-07
 -3.185808e-07
 -5.402086e-07
 -5.783996e-07
 -7.123167e-08
 4.052706e-07
 1.958858e-07
 -1.272197e-07
 -1.195412e-07
 1.751132e-05
 2.033011e-07
 3.002972e-07
 3.818363e-08
 -2.512825e-07
 -2.177473e-07
 -8.944261e-08
 0.000000e+00
 0.000000e+00
 -2.157882e-08
 -4.359860e-08
 -6.600083e-08
 -8.814951e-08
 -1.092504e-07
 -1.289347e-07
 -1.475223e-07
 -1.654365e-07
 -1.808597e-07
 -1.855145e-07
 -1.661236e-07
 -1.236007e-07
 -8.575814e-08
 -7.661860e-08
 -9.102849e-08
 -1.102943e-07
 -1.174706e-07
 -9.824760e-08
 -3.382360e-08
 1.403222e-07
 7.771536e-07
 -1.510875e-07
 -1.498706e-06
 -4.690434e-07
 -3.459356e-07
 -3.267383e-07
 -2.834977e-07
 -1.688768e-07
 -6.510623e-08
 -4.429285e-08
 -7.070755e-08
 -1.060337e-07
 -1.488766e-07
 -2.239757e-07
 -3.826468e-07
 -7.182465e-07
 -1.806285e-06
 -8.833298e-08
 1.163030e-06
 4.523997e-07
 2.890445e-07
 9.126261e-07
 1.030986e-07
 -1.164322e-06
 -1.285994e-07
 -7.469376e-08
 -1.292800e-07
 -1.248751e-07
 -6.781824e-08
 0.000000e+00
 0.000000e+00
 -2.034168e-08
 -4.093212e-08
 -6.179082e-08
 -8.265189e-08
 -1.031630e-07
 -1.233513e-07
 -1.443527e-07
 -1.690434e-07
 -2.002712e-07
 -2.271638e-07
 -2.028136e-07
 -1.018548e-07
 -1.294245e-08
 -9.148555e-09
 -5.216457e-08
 -9.467810e-08
 -1.118423e-07
 -8.304207e-08
 1.821924e-09
 1.287199e-07
 1.870605e-07
 -8.033076e-08
 -4.008267e-07
 -4.190893e-07
 -3.770263e-07
 -4.393774e-07
 -4.417741e-07
 -1.401109e-07
 1.183935e-07
 7.399000e-08
 -1.549742e-08
 -6.900318e-08
 -1.098209e-07
 -1.672620e-07
 -2.848771e-07
 -5.599703e-07
 -1.693299e-06
 1.735883e-05
 1.022400e-06
 2.768324e-07
 4.837283e-08
 2.829977e-07
 2.643168e-07
 -6.721381e-08
 -1.380443e-07
 -1.058768e-07
 -1.025551e-07
 -8.653437e-08
 -4.870305e-08
 0.000000e+00
 0.000000e+00
 -1.881223e-08
 -3.794232e-08
 -5.755680e-08
 -7.755946e-08
 -9.757876e-08
 -1.172859e-07
 -1.377305e-07
 -1.648057e-07
 -2.152917e-07
 -3.202336e-07
 -3.456688e-07
 -6.367905e-08
 1.725974e-07
 1.017056e-07
 -1.870171e-08
 -1.038566e-07
 -1.537302e-07
 -1.287636e-07
 -7.690566e-09
 1.064729e-07
 9.604780e-08
 -4.085992e-08
 -1.915897e-07
 -2.633478e-07
 -3.045776e-07
 -4.454775e-07
 -1.489473e-06
 -1.512207e-07
 7.764381e-07
 1.514168e-07
 -9.047028e-10
 -4.453690e-08
 -5.601908e-08
 -5.722786e-08
 -5.409187e-08
 -4.220792e-08
 -5.018612e-07
 1.735330e-05
 -5.545949e-07
 -2.457454e-07
 -1.303875e-06
 1.510042e-09
 8.310486e-07
 1.034630e-07
 -7.814613e-08
 -1.059893e-07
 -9.637942e-08
 -7.326201e-08
 -3.962834e-08
 0.000000e+00
 0.000000e+00
 -1.693856e-08
 -3.442225e-08
 -5.288178e-08
 -7.243214e-08
 -9.247534e-08
 -1.112054e-07
 -1.262620e-07
 -1.401857e-07
 -1.762235e-07
 -3.233045e-07
 -1.379648e-06
 -6.222223e-08
 8.370834e-07
 1.765041e-07
 -2.286970e-08
 -1.379704e-07
 -2.699346e-07
 -3.013247e-07
 -1.216756e-08
 2.323810e-07
 1.549111e-07
 9.847706e-09
 -9.424354e-08
 -1.451092e-07