<VTKFile type="UnstructuredGrid"  version="0.1"   >
<UnstructuredGrid>  
<Piece  NumberOfPoints="     2601"  NumberOfCells="     5000">  
<Points>  
<DataArray  type="Float64"  NumberOfComponents="3"  format="ascii">  
 0.000000 0.000000 0.000000 
 0.020000 0.000000 0.000000 
 0.040000 0.000000 0.000000 
 0.060000 0.000000 0.000000 
 0.080000 0.000000 0.000000 
 0.100000 0.000000 0.000000 
 0.120000 0.000000 0.000000 
 0.140000 0.000000 0.000000 
 0.160000 0.000000 0.000000 
 0.180000 0.000000 0.000000 
 0.200000 0.000000 0.000000 
 0.220000 0.000000 0.000000 
 0.240000 0.000000 0.000000 
 0.260000 0.000000 0.000000 
 0.280000 0.000000 0.000000 
 0.300000 0.000000 0.000000 
 0.320000 0.000000 0.000000 
 0.340000 0.000000 0.000000 
 0.360000 0.000000 0.000000 
 0.380000 0.000000 0.000000 
 0.400000 0.000000 0.000000 
 0.420000 0.000000 0.000000 
 0.440000 0.000000 0.000000 
 0.460000 0.000000 0.000000 
 0.480000 0.000000 0.000000 
 0.500000 0.000000 0.000000 
 0.520000 0.000000 0.000000 
 0.540000 0.000000 0.000000 
 0.560000 0.000000 0.000000 
 0.580000 0.000000 0.000000 
 0.600000 0.000000 0.000000 
 0.620000 0.000000 0.000000 
 0.640000 0.000000 0.000000 
 0.660000 0.000000 0.000000 
 0.680000 0.000000 0.000000 
 0.700000 0.000000 0.000000 
 0.720000 0.000000 0.000000 
 0.740000 0.000000 0.000000 
 0.760000 0.000000 0.000000 
 0.780000 0.000000 0.000000 
 0.800000 0.000000 0.000000 
 0.820000 0.000000 0.000000 
 0.840000 0.000000 0.000000 
 0.860000 0.000000 0.000000 
 0.880000 0.000000 0.000000 
 0.900000 0.000000 0.000000 
 0.920000 0.000000 0.000000 
 0.940000 0.000000 0.000000 
 0.960000 0.000000 0.000000 
 0.980000 0.000000 0.000000 
 1.000000 0.000000 0.000000 
 0.000000 0.020000 0.000000 
 0.020000 0.020000 0.000000 
 0.040000 0.020000 0.000000 
 0.060000 0.020000 0.000000 
 0.080000 0.020000 0.000000 
 0.100000 0.020000 0.000000 
 0.120000 0.020000 0.000000 
 0.140000 0.020000 0.000000 
 0.160000 0.020000 0.000000 
 0.180000 0.020000 0.000000 
 0.200000 0.020000 0.000000 
 0.220000 0.020000 0.000000 
 0.240000 0.020000 0.000000 
 0.260000 0.020000 0.000000 
 0.280000 0.020000 0.000000 
 0.300000 0.020000 0.000000 
 0.320000 0.020000 0.000000 
 0.340000 0.020000 0.000000 
 0.360000 0.020000 0.000000 
 0.380000 0.020000 0.000000 
 0.400000 0.020000 0.000000 
 0.420000 0.020000 0.000000 
 0.440000 0.020000 0.000000 
 0.460000 0.020000 0.000000 
 0.480000 0.020000 0.000000 
 0.500000 0.020000 0.000000 
 0.520000 0.020000 0.000000 
 0.540000 0.020000 0.000000 
 0.560000 0.020000 0.000000 
 0.580000 0.020000 0.000000 
 0.600000 0.020000 0.000000 
 0.620000 0.020000 0.000000 
 0.640000 0.020000 0.000000 
 0.660000 0.020000 0.000000 
 0.680000 0.020000 0.000000 
 0.700000 0.020000 0.000000 
 0.720000 0.020000 0.000000 
 0.740000 0.020000 0.000000 
 0.760000 0.020000 0.000000 
 0.780000 0.020000 0.000000 
 0.800000 0.020000 0.000000 
 0.820000 0.020000 0.000000 
 0.840000 0.020000 0.000000 
 0.860000 0.020000 0.000000 
 0.880000 0.020000 0.000000 
 0.900000 0.020000 0.000000 
 0.920000 0.020000 0.000000 
 0.940000 0.020000 0.000000 
 0.960000 0.020000 0.000000 
 0.980000 0.020000 0.000000 
 1.000000 0.020000 0.000000 
 0.000000 0.040000 0.000000 
 0.020000 0.040000 0.000000 
 0.040000 0.040000 0.000000 
 0.060000 0.040000 0.000000 
 0.080000 0.040000 0.000000 
 0.100000 0.040000 0.000000 
 0.120000 0.040000 0.000000 
 0.140000 0.040000 0.000000 
 0.160000 0.040000 0.000000 
 0.180000 0.040000 0.000000 
 0.200000 0.040000 0.000000 
 0.220000 0.040000 0.000000 
 0.240000 0.040000 0.000000 
 0.260000 0.040000 0.000000 
 0.280000 0.040000 0.000000 
 0.300000 0.040000 0.000000 
 0.320000 0.040000 0.000000 
 0.340000 0.040000 0.000000 
 0.360000 0.040000 0.000000 
 0.380000 0.040000 0.000000 
 0.400000 0.040000 0.000000 
 0.420000 0.040000 0.000000 
 0.440000 0.040000 0.000000 
 0.460000 0.040000 0.000000 
 0.480000 0.040000 0.000000 
 0.500000 0.040000 0.000000 
 0.520000 0.040000 0.000000 
 0.540000 0.040000 0.000000 
 0.560000 0.040000 0.000000 
 0.580000 0.040000 0.000000 
 0.600000 0.040000 0.000000 
 0.620000 0.040000 0.000000 
 0.640000 0.040000 0.000000 
 0.660000 0.040000 0.000000 
 0.680000 0.040000 0.000000 
 0.700000 0.040000 0.000000 
 0.720000 0.040000 0.000000 
 0.740000 0.040000 0.000000 
 0.760000 0.040000 0.000000 
 0.780000 0.040000 0.000000 
 0.800000 0.040000 0.000000 
 0.820000 0.040000 0.000000 
 0.840000 0.040000 0.000000 
 0.860000 0.040000 0.000000 
 0.880000 0.040000 0.000000 
 0.900000 0.040000 0.000000 
 0.920000 0.040000 0.000000 
 0.940000 0.040000 0.000000 
 0.960000 0.040000 0.000000 
 0.980000 0.040000 0.000000 
 1.000000 0.040000 0.000000 
 0.000000 0.060000 0.000000 
 0.020000 0.060000 0.000000 
 0.040000 0.060000 0.000000 
 0.060000 0.060000 0.000000 
 0.080000 0.060000 0.000000 
 0.100000 0.060000 0.000000 
 0.120000 0.060000 0.000000 
 0.140000 0.060000 0.000000 
 0.160000 0.060000 0.000000 
 0.180000 0.060000 0.000000 
 0.200000 0.060000 0.000000 
 0.220000 0.060000 0.000000 
 0.240000 0.060000 0.000000 
 0.260000 0.060000 0.000000 
 0.280000 0.060000 0.000000 
 0.300000 0.060000 0.000000 
 0.320000 0.060000 0.000000 
 0.340000 0.060000 0.000000 
 0.360000 0.060000 0.000000 
 0.380000 0.060000 0.000000 
 0.400000 0.060000 0.000000 
 0.420000 0.060000 0.000000 
 0.440000 0.060000 0.000000 
 0.460000 0.060000 0.000000 
 0.480000 0.060000 0.000000 
 0.500000 0.060000 0.000000 
 0.520000 0.060000 0.000000 
 0.540000 0.060000 0.000000 
 0.560000 0.060000 0.000000 
 0.580000 0.060000 0.000000 
 0.600000 0.060000 0.000000 
 0.620000 0.060000 0.000000 
 0.640000 0.060000 0.000000 
 0.660000 0.060000 0.000000 
 0.680000 0.060000 0.000000 
 0.700000 0.060000 0.000000 
 0.720000 0.060000 0.000000 
 0.740000 0.060000 0.000000 
 0.760000 0.060000 0.000000 
 0.780000 0.060000 0.000000 
 0.800000 0.060000 0.000000 
 0.820000 0.060000 0.000000 
 0.840000 0.060000 0.000000 
 0.860000 0.060000 0.000000 
 0.880000 0.060000 0.000000 
 0.900000 0.060000 0.000000 
 0.920000 0.060000 0.000000 
 0.940000 0.060000 0.000000 
 0.960000 0.060000 0.000000 
 0.980000 0.060000 0.000000 
 1.000000 0.060000 0.000000 
 0.000000 0.080000 0.000000 
 0.020000 0.080000 0.000000 
 0.040000 0.080000 0.000000 
 0.060000 0.080000 0.000000 
 0.080000 0.080000 0.000000 
 0.100000 0.080000 0.000000 
 0.120000 0.080000 0.000000 
 0.140000 0.080000 0.000000 
 0.160000 0.080000 0.000000 
 0.180000 0.080000 0.000000 
 0.200000 0.080000 0.000000 
 0.220000 0.080000 0.000000 
 0.240000 0.080000 0.000000 
 0.260000 0.080000 0.000000 
 0.280000 0.080000 0.000000 
 0.300000 0.080000 0.000000 
 0.320000 0.080000 0.000000 
 0.340000 0.080000 0.000000 
 0.360000 0.080000 0.000000 
 0.380000 0.080000 0.000000 
 0.400000 0.080000 0.000000 
 0.420000 0.080000 0.000000 
 0.440000 0.080000 0.000000 
 0.460000 0.080000 0.000000 
 0.480000 0.080000 0.000000 
 0.500000 0.080000 0.000000 
 0.520000 0.080000 0.000000 
 0.540000 0.080000 0.000000 
 0.560000 0.080000 0.000000 
 0.580000 0.080000 0.000000 
 0.600000 0.080000 0.000000 
 0.620000 0.080000 0.000000 
 0.640000 0.080000 0.000000 
 0.660000 0.080000 0.000000 
 0.680000 0.080000 0.000000 
 0.700000 0.080000 0.000000 
 0.720000 0.080000 0.000000 
 0.740000 0.080000 0.000000 
 0.760000 0.080000 0.000000 
 0.780000 0.080000 0.000000 
 0.800000 0.080000 0.000000 
 0.820000 0.080000 0.000000 
 0.840000 0.080000 0.000000 
 0.860000 0.080000 0.000000 
 0.880000 0.080000 0.000000 
 0.900000 0.080000 0.000000 
 0.920000 0.080000 0.000000 
 0.940000 0.080000 0.000000 
 0.960000 0.080000 0.000000 
 0.980000 0.080000 0.000000 
 1.000000 0.080000 0.000000 
 0.000000 0.100000 0.000000 
 0.020000 0.100000 0.000000 
 0.040000 0.100000 0.000000 
 0.060000 0.100000 0.000000 
 0.080000 0.100000 0.000000 
 0.100000 0.100000 0.000000 
 0.120000 0.100000 0.000000 
 0.140000 0.100000 0.000000 
 0.160000 0.100000 0.000000 
 0.180000 0.100000 0.000000 
 0.200000 0.100000 0.000000 
 0.220000 0.100000 0.000000 
 0.240000 0.100000 0.000000 
 0.260000 0.100000 0.000000 
 0.280000 0.100000 0.000000 
 0.300000 0.100000 0.000000 
 0.320000 0.100000 0.000000 
 0.340000 0.100000 0.000000 
 0.360000 0.100000 0.000000 
 0.380000 0.100000 0.000000 
 0.400000 0.100000 0.000000 
 0.420000 0.100000 0.000000 
 0.440000 0.100000 0.000000 
 0.460000 0.100000 0.000000 
 0.480000 0.100000 0.000000 
 0.500000 0.100000 0.000000 
 0.520000 0.100000 0.000000 
 0.540000 0.100000 0.000000 
 0.560000 0.100000 0.000000 
 0.580000 0.100000 0.000000 
 0.600000 0.100000 0.000000 
 0.620000 0.100000 0.000000 
 0.640000 0.100000 0.000000 
 0.660000 0.100000 0.000000 
 0.680000 0.100000 0.000000 
 0.700000 0.100000 0.000000 
 0.720000 0.100000 0.000000 
 0.740000 0.100000 0.000000 
 0.760000 0.100000 0.000000 
 0.780000 0.100000 0.000000 
 0.800000 0.100000 0.000000 
 0.820000 0.100000 0.000000 
 0.840000 0.100000 0.000000 
 0.860000 0.100000 0.000000 
 0.880000 0.100000 0.000000 
 0.900000 0.100000 0.000000 
 0.920000 0.100000 0.000000 
 0.940000 0.100000 0.000000 
 0.960000 0.100000 0.000000 
 0.980000 0.100000 0.000000 
 1.000000 0.100000 0.000000 
 0.000000 0.120000 0.000000 
 0.020000 0.120000 0.000000 
 0.040000 0.120000 0.000000 
 0.060000 0.120000 0.000000 
 0.080000 0.120000 0.000000 
 0.100000 0.120000 0.000000 
 0.120000 0.120000 0.000000 
 0.140000 0.120000 0.000000 
 0.160000 0.120000 0.000000 
 0.180000 0.120000 0.000000 
 0.200000 0.120000 0.000000 
 0.220000 0.120000 0.000000 
 0.240000 0.120000 0.000000 
 0.260000 0.120000 0.000000 
 0.280000 0.120000 0.000000 
 0.300000 0.120000 0.000000 
 0.320000 0.120000 0.000000 
 0.340000 0.120000 0.000000 
 0.360000 0.120000 0.000000 
 0.380000 0.120000 0.000000 
 0.400000 0.120000 0.000000 
 0.420000 0.120000 0.000000 
 0.440000 0.120000 0.000000 
 0.460000 0.120000 0.000000 
 0.480000 0.120000 0.000000 
 0.500000 0.120000 0.000000 
 0.520000 0.120000 0.000000 
 0.540000 0.120000 0.000000 
 0.560000 0.120000 0.000000 
 0.580000 0.120000 0.000000 
 0.600000 0.120000 0.000000 
[...]
<PointData  Scalars="U"> 
<DataArray  type="Float64"  Name="U"  format="ascii"> 
 0.000000e+00
 0.000000e+00
 0.000000e+00
 0.000000e+00
 0.000000e+00
 0.000000e+00
 0.000000e+00
 0.000000e+00
 0.000000e+00
 0.000000e+00
 0.000000e+00
 0.000000e+00
 0.000000e+00
 0.000000e+00
 0.000000e+00
 0.000000e+00
 0.000000e+00
 0.000000e+00
 0.000000e+00
 0.000000e+00
 0.000000e+00
 0.000000e+00
 0.000000e+00
 0.000000e+00
 0.000000e+00
 0.000000e+00
 0.000000e+00
 0.000000e+00
 0.000000e+00
 0.000000e+00
 0.000000e+00
 0.000000e+00
 0.000000e+00
 0.000000e+00
 0.000000e+00
 0.000000e+00
 0.000000e+00
 0.000000e+00
 0.000000e+00
 0.000000e+00
 0.000000e+00
 0.000000e+00
 0.000000e+00
 0.000000e+00
 0.000000e+00
 0.000000e+00
 0.000000e+00
 0.000000e+00
 0.000000e+00
 0.000000e+00
 0.000000e+00
 0.000000e+00
 -4.293036e-09
 -8.833062e-09
 -1.406460e-08
 -2.079769e-08
 -2.993442e-08
 -4.053235e-08
 -4.545009e-08
 -3.157818e-08
 2.593093e-09
 3.396182e-08
 4.234013e-08
 3.256883e-08
 1.790504e-08
 5.368860e-09
 -3.874416e-09
 -1.087111e-08
 -1.706630e-08
 -2.366436e-08
 -3.075366e-08
 -3.445153e-08
 -2.063554e-08
 3.949040e-08
 1.803410e-07
 1.788792e-07
 1.730345e-05
 -5.245407e-07
 -7.181141e-07
 -1.417937e-06
 -3.298933e-06
 -3.464112e-06
 1.623812e-05
 -8.925185e-07
 -7.442548e-07
 -1.640278e-06
 -2.181381e-07
 8.614830e-07
 3.377731e-07
 1.747584e-05
 -2.242526e-07
 -1.555821e-07
 -9.118089e-08
 -5.138182e-08
 -3.055826e-08
 -2.002994e-08
 -1.448648e-08
 -1.085161e-08
 -7.718342e-09
 -4.779732e-09
 -2.062532e-09
 0.000000e+00
 0.000000e+00
 -8.371215e-09
 -1.704361e-08
 -2.668501e-08
 -3.898541e-08
 -5.733100e-08
 -8.505891e-08
 -1.115423e-07
 -8.933177e-08
 8.733795e-09
 9.672387e-08
 1.038743e-07
 6.845906e-08
 3.268529e-08
 7.149873e-09
 -1.003009e-08
 -2.250882e-08
 -3.359406e-08
 -4.629902e-08
 -6.321722e-08
 -8.344175e-08
 -8.648964e-08
 -3.465889e-09
 2.513394e-07
 8.981161e-07
 -2.013879e-07
 -1.807568e-06
 -1.067168e-06
 -1.349466e-06
 -1.658845e-06
 -9.656143e-07
 -1.351023e-06
 -2.274733e-06
 -1.042538e-06
 -8.090235e-07
 1.698931e-05
 -6.245905e-08
 8.449817e-07
 8.868358e-08
 -1.303571e-06
 -3.071659e-07
 -1.510057e-07
 -8.457342e-08
 -5.138041e-08
 -3.542311e-08
 -2.734705e-08
 -2.139215e-08
 -1.529728e-08
 -9.260194e-09
 -4.133096e-09
 0.000000e+00
 0.000000e+00
 -1.219939e-08
 -2.444709e-08
 -3.696971e-08
 -5.136907e-08
 -7.400832e-08
 -1.219726e-07
 -2.262725e-07
 -2.523090e-07
 2.927656e-08
 2.675543e-07
 2.037710e-07
 9.822464e-08
 3.575286e-08
 4.761521e-10
 -2.078687e-08
 -3.549474e-08
 -4.848877e-08
 -6.439942e-08
 -9.017148e-08
 -1.391654e-07
 -2.339790e-07
 -2.295774e-07
 1.059049e-07
 3.144116e-07
 -1.336768e-07
 -7.044638e-07
 -9.461132e-07
 -1.078037e-06
 -1.138221e-06
 -1.041215e-06
 -1.052472e-06
 -1.070474e-06
 -8.431607e-07
 -1.062812e-06
 -6.829692e-07
 -2.115195e-06
 -3.414916e-07
 5.874767e-07
 -8.395028e-08
 -2.057615e-07
 -1.469187e-07
 -8.803312e-08
 -5.560632e-08
 -4.351887e-08
 -3.870612e-08
 -3.250898e-08
 -2.291248e-08
 -1.267261e-08
 -4.979672e-09
 0.000000e+00
 0.000000e+00
 -1.598240e-08
 -3.174139e-08
 -4.608670e-08
 -5.727233e-08
 -6.833568e-08
 -1.028163e-07
 -2.496189e-07
 -1.306472e-06
 1.077968e-08
 9.122428e-07
 2.596404e-07
 8.081969e-08
 1.308248e-08
 -1.924576e-08
 -3.769503e-08
 -5.015797e-08
 -6.080588e-08
 -7.363326e-08
 -9.600104e-08
 -1.489231e-07
 -3.115391e-07
 -1.376663e-06
 -7.871473e-08
 7.369426e-07
 -1.121526e-07
 -5.199884e-07
 -7.458490e-07
 -8.631733e-07
 -9.009737e-07
 -8.698820e-07
 -8.086937e-07
 -6.869154e-07
 -4.447800e-07
 -2.767893e-07
 1.702287e-05
 -8.477970e-07
 1.557780e-05
 -5.885055e-07
 3.313800e-07
 -1.767794e-07
 -1.327748e-07
 -5.955483e-08
 -3.888843e-08
 -4.529171e-08
 -5.265250e-08
 -4.790591e-08
 -3.121603e-08
 -1.291167e-08
 -2.549690e-09
 0.000000e+00
 0.000000e+00
 -1.980240e-08
 -4.022823e-08
 -5.887854e-08
 -6.624179e-08
 -4.745701e-08
 -9.143733e-10
 5.477801e-08
 3.928210e-08
 1.748691e-05
 6.571867e-09
 1.338054e-08
 -2.039858e-08
 -3.870650e-08
 -5.113365e-08
 -6.009452e-08
 -6.660781e-08
 -7.137537e-08
 -7.499409e-08
 -7.782781e-08
 -7.923919e-08
 -7.270532e-08
 -1.203854e-07
 1.729505e-05
 -2.503664e-07
 -3.544750e-07
 -5.178426e-07
 -6.442702e-07
 -7.224565e-07
 -7.455984e-07
 -7.102689e-07
 -6.167462e-07
 -4.478561e-07
 -1.387115e-07
 6.345179e-07
 -1.367959e-07
 -8.883649e-07
 -8.497858e-07
 1.531571e-05
 -1.077683e-06
 -5.288216e-07
 -8.312480e-08
 3.263176e-08
 2.811468e-09
 -4.828274e-08
 -8.096315e-08
 -7.727175e-08
 -4.093948e-08
 -3.189179e-09
 9.108334e-09
 0.000000e+00
 0.000000e+00
 -2.256131e-08
 -4.921894e-08
 -8.136922e-08
 -1.036343e-07
 -6.007573e-08
 9.685301e-08
 3.543120e-07
 1.002419e-06
 5.296516e-08
 -1.308394e-06
 -2.751712e-07
 -1.329611e-07
 -9.565381e-08
 -8.632874e-08
 -8.490459e-08
 -8.479353e-08
 -8.306523e-08
 -7.703058e-08
 -6.054162e-08
 -1.386538e-08
 1.365845e-07
 7.503283e-07
 -2.047633e-07
 -1.592599e-06
 -6.180557e-07
 -5.535193e-07
 -5.917838e-07
 -6.369951e-07
 -6.503764e-07
 -6.056145e-07
 -4.939706e-07
 -3.293556e-07
 -1.227622e-07
 4.235129e-08
 -5.852239e-08
 -1.623536e-07
 1.774850e-07
 -1.127582e-06
 -3.531539e-06
 -1.007714e-06
 4.710383e-07
 2.132573e-07
 5.970355e-08
 -7.283800e-08
 -1.486918e-07
 -1.456322e-07
 -5.111179e-08
 3.881513e-08
 4.480467e-08
 0.000000e+00
 0.000000e+00
 -2.099976e-08
 -5.091347e-08
 -1.044091e-07
 -2.054374e-07
 -2.094442e-07
 1.258090e-07
 4.626597e-07
 4.552259e-07
 1.035539e-07
 -2.463973e-07
 -2.569256e-07
 -1.702680e-07
 -1.310031e-07
 -1.152782e-07
 -1.088895e-07
 -1.046468e-07
 -9.861369e-08
 -8.780329e-08
 -6.717784e-08
 -2.518935e-08
 5.394583e-08
 8.569073e-08
 -1.915678e-07
 -5.217348e-07
 -5.546497e-07
 -5.168641e-07
 -5.388055e-07
 -5.841525e-07
 -6.161505e-07
 -5.732169e-07
 -4.224633e-07
 -2.513517e-07
 -1.454278e-07
 -1.059792e-07
 -1.210553e-07
 -1.325408e-07
 -1.983293e-07
 -5.595676e-07
 -1.034206e-06
 1.546396e-05
 -4.578154e-07
 6.279135e-07
 3.812667e-08
 -1.436213e-07
 -2.931657e-07
 -3.342643e-07
 -5.221703e-08
 1.923837e-07
 1.288013e-07
 0.000000e+00
 0.000000e+00
 -1.142956e-08
 -3.115886e-08
 -7.976263e-08
 -2.342399e-07
 -1.280629e-06
 6.680379e-08
 1.001751e-06
 3.387273e-07
 6.605106e-08
 -1.063872e-07
 -1.658473e-07
 -1.600348e-07
 -1.449902e-07
 -1.359765e-07
 -1.312249e-07
 -1.264736e-07
 -1.186592e-07
 -1.072781e-07
 -9.339866e-08
 -7.765097e-08
 -6.743782e-08
 -9.848779e-08
 -2.074429e-07
 -3.309301e-07
 -3.921134e-07
 -4.208720e-07
 -4.639440e-07
 -5.377465e-07
 -6.581548e-07
 -6.790511e-07
 -3.687184e-07
 -8.621372e-08
 -1.077419e-07
 -1.839984e-07
 -1.980370e-07
 -1.367877e-07
 -9.763752e-08
 -9.081962e-08
 3.974222e-07
 -5.391119e-07
 1.576437e-05
 -4.651973e-07
 -2.169920e-07
 -2.207033e-07
 -3.721255e-07
 -1.429328e-06
 -9.865110e-08
 8.250453e-07
 1.908529e-07
 0.000000e+00
 0.000000e+00
 4.953524e-09
 1.114265e-08
 2.113027e-08
 4.466598e-08
 2.591245e-08
 1.749291e-05
 3.091254e-08
 3.132485e-08
 -3.999038e-08
 -1.027468e-07
 -1.386209e-07
 -1.496595e-07
 -1.510857e-07
 -1.521973e-07
 -1.537892e-07
 -1.518614e-07
 -1.426093e-07
 -1.289742e-07
 -1.218204e-07
 -1.302967e-07
 -1.526768e-07
 -1.794823e-07
 -2.047679e-07
 -2.303170e-07
 -2.611839e-07
 -3.028100e-07
 -3.598748e-07
 -4.458587e-07
 -6.316587e-07
 -1.701441e-06
 -3.712923e-07
 5.543896e-07
 -9.140111e-08
 -3.237332e-07
 -3.801182e-07
 -1.106479e-07
 1.192006e-07
 7.695007e-08
 2.827373e-08
 3.438881e-07
 -5.303834e-07
 -1.511709e-06
 -3.415303e-07
 -1.885401e-07
 -1.323806e-07
 -1.404395e-07
 1.733979e-05
 -9.052353e-08
 -2.504711e-08
 0.000000e+00
 0.000000e+00
 2.025172e-08
 5.037013e-08
 1.126131e-07
 2.829975e-07
 9.245639e-07
 9.972567e-09
 -1.321857e-06
 -2.804406e-07
 -1.496165e-07
 -1.317573e-07
 -1.385001e-07
 -1.472241e-07
 -1.559900e-07
 -1.671321e-07
 -1.798062e-07
 -1.858421e-07
 -1.726818e-07
 -1.438860e-07
 -1.323683e-07
 -1.674421e-07
 -2.343687e-07
 -2.636119e-07
 -2.022199e-07
 -1.244792e-07
 -1.191193e-07
 -1.699577e-07
 -2.334703e-07
 -2.845871e-07
 -3.061370e-07
 -3.520903e-07
 1.710723e-05
 -3.409832e-07
 -3.167461e-07
 -4.415002e-07
 -1.464067e-06
 -1.208054e-07
 7.874924e-07
 1.077970e-07
 -2.060824e-07
 -1.361103e-06
 -3.019808e-07
 4.128109e-07
 -1.157015e-07
 -9.241372e-08
 8.212861e-08
 7.374058e-07
 -1.487521e-07
 -1.423887e-06
 -2.841880e-07
 0.000000e+00
 0.000000e+00
 2.722196e-08
 6.370919e-08
 1.232302e-07
 2.218324e-07
 2.749753e-07
 2.310277e-08
 -2.739001e-07
 -2.639939e-07
 -1.759299e-07
 -1.444423e-07
 -1.393824e-07
 -1.452140e-07
 -1.579385e-07
 -1.792073e-07
 -2.110252e-07
 -2.417029e-07
 -2.252093e-07
 -1.409116e-07
 -8.833715e-08
 -1.612415e-07
 -3.529071e-07
 -4.698015e-07
 -2.183966e-07
 8.022488e-08
 8.049038e-08
 -2.896241e-08
 -1.211374e-07
 -1.495472e-07
 -3.901749e-08
 5.701878e-07
 -3.458484e-07
 -1.637753e-06
 -5.062580e-07
 -2.405895e-07
 -1.383526e-07
 1.738341e-05
 -6.826333e-08
 -8.491443e-08
 -2.170542e-07
 -3.558946e-07
 1.724405e-05
 -7.741950e-08
 -8.868198e-08
 -9.710037e-08
 -8.828251e-09
 5.351927e-08
 -1.696216e-07
 -3.990100e-07
 -2.662895e-07
 0.000000e+00
 0.000000e+00
 2.570461e-08
 5.540701e-08
 9.069715e-08
 1.204217e-07
 1.022760e-07
 -9.859195e-10
 -1.165080e-07
 -1.561898e-07
 -1.460542e-07
 -1.337829e-07
 -1.312646e-07
 -1.371990e-07
 -1.515496e-07
 -1.793712e-07
 -2.349325e-07
 -3.455632e-07
 -3.760773e-07
 -1.033997e-07
 1.062244e-07
 -3.882710e-08
 -3.742636e-07
 -1.629559e-06
 -3.939451e-07
 7.593511e-07
 3.319195e-07
 8.864255e-08
 -7.072946e-08
 -1.260086e-07
 -9.760394e-08
 -8.526286e-08
 -3.441862e-07
 -5.871987e-07
 -4.135285e-07
 1.232232e-08
 8.443713e-07
 2.375702e-08
 -1.284903e-06
 -2.470313e-07
 -1.299221e-07
 -5.668254e-07
 -2.095298e-07
 -6.578177e-07
 -2.293093e-07
 -1.914299e-07
 -1.537097e-07
 -1.694786e-07
 -2.671909e-07
 -3.240712e-07
 -2.112602e-07
 0.000000e+00
 0.000000e+00
 1.996977e-08
 3.998798e-08
 5.732253e-08
 6.288790e-08
 4.213097e-08
 -8.470757e-09
 -6.452449e-08
 -9.839779e-08
 -1.096249e-07
 -1.121405e-07
 -1.151146e-07
 -1.215800e-07
 -1.331121e-07
 -1.545062e-07
 -2.045665e-07
 -3.611292e-07
 -1.415096e-06
 -8.739737e-08
 8.199625e-07
 1.564445e-07
 -6.391540e-08
 -3.365030e-07
 1.600875e-05
 -1.667361e-07
 7.436580e-07
 6.529621e-08
 -1.202555e-07
 -1.863400e-07
 -2.228803e-07
 -2.937022e-07
 -4.362930e-07
 -5.373777e-07
 -3.908613e-07
 3.313314e-08
 3.883728e-07
 2.337380e-07
 -7.975764e-08
 -7.843835e-08
 7.049221e-08
 9.581344e-08
 1.729746e-05
 -4.539303e-07
 -3.951014e-07
 -2.922783e-07
 -2.463964e-07
 -2.738014e-07
 -3.999944e-07
 -4.718632e-07
 -2.482219e-07
 0.000000e+00
 0.000000e+00
 1.377063e-08
 2.613555e-08
 3.424785e-08
 3.320279e-08
 1.822513e-08
 -9.692216e-09
 -4.112162e-08
 -6.562914e-08
 -8.039878e-08
 -8.893095e-08
 -9.527965e-08
 -1.013197e-07
 -1.065254e-07
 -1.077078e-07
 -9.808604e-08
 -6.407225e-08
 -6.296330e-08
 1.742805e-05
 1.253199e-10
 7.850302e-08
 2.139111e-07
 8.398862e-07
 -1.297419e-07
 1.597969e-05
 -4.420993e-07
 -2.747157e-07
 -2.624842e-07
 -2.759985e-07
 -3.154098e-07
 -3.981135e-07
 -5.466455e-07
 -7.676390e-07
 -7.152268e-07
 5.728996e-08
 6.785515e-07
 5.149107e-07
 2.142748e-07
 1.078565e-07
 2.255437e-07
 8.305243e-07
 -1.631075e-07
 -1.566929e-06
 -5.204543e-07
 -3.352965e-07
 -2.691965e-07
 -2.757789e-07
 -4.193380e-07
 -1.501784e-06
 -3.098553e-07
 0.000000e+00
 0.000000e+00
 8.722191e-09
 1.611450e-08
 2.021274e-08
 1.847212e-08
 9.057603e-09
 -7.183311e-09
 -2.630615e-08
 -4.377256e-08
 -5.736418e-08
 -6.746800e-08
 -7.536746e-08
 -8.147366e-08
 -8.336450e-08
 -7.093157e-08
 -1.291551e-08
 1.818943e-07
 8.789365e-07
 2.941700e-08
 -1.239482e-06
 -1.107674e-07
 1.813080e-07
 4.259219e-07
 8.105615e-07
 -4.064207e-07
 -1.722434e-06
 -5.722683e-07
 -3.823930e-07
 -3.429212e-07
 -3.658199e-07
 -4.339836e-07
 -5.783114e-07
 -9.464181e-07
 -2.964641e-06
 7.619720e-08
 2.155642e-06
 7.631015e-07
 2.752945e-07
 9.387818e-08
 7.006762e-08
 8.385854e-08
 -1.293043e-07
 -3.815764e-07
 -3.686937e-07
 -2.838869e-07
 -2.324735e-07
 -1.741826e-07
 -9.063952e-08
 -6.079079e-08
 1.741723e-05
 0.000000e+00
 0.000000e+00
 4.879079e-09
 9.251444e-09
 1.210473e-08
 1.190830e-08
 7.338984e-09
 -1.678492e-09
 -1.363170e-08
 -2.628643e-08
 -3.795544e-08
 -4.805805e-08
 -5.684347e-08
 -6.478147e-08
 -7.149217e-08
 -7.178988e-08
 -3.941713e-08
 9.142125e-08
 2.648735e-07
 1.371084e-07
 -9.882269e-08
 -4.644748e-08
 1.072453e-07
 2.089740e-07
 1.641057e-07
 -1.994507e-07
 -5.274944e-07
 -4.944064e-07
 -3.841585e-07
 -3.554112e-07
 -3.778799e-07
 -4.060977e-07
 -4.463676e-07
 -5.007194e-07
 -1.308213e-06
 3.515956e-05
 1.070754e-06
 3.599873e-07
 7.511229e-08
 -6.233220e-08
 -2.009128e-07
 -2.841665e-07
 -1.328370e-07
 -2.419819e-08
 -1.252957e-07
 -2.025965e-07
 -2.065514e-07
 -1.005285e-07
 2.091148e-07
 1.012754e-06
 2.873686e-07
 0.000000e+00
 0.000000e+00
 1.443855e-09
 3.797122e-09
 7.068383e-09
 9.947304e-09
 1.037467e-08
 6.895273e-09
 -3.729545e-10
 -9.997236e-09
 -2.025756e-08
 -3.000621e-08
 -3.907924e-08
 -4.877669e-08
 -6.347426e-08
 -9.502107e-08
 -1.685956e-07
 -1.567653e-07
 1.286584e-07
 2.984250e-07
 1.651503e-07
 7.448832e-08
 7.550020e-08
 7.792427e-08
 1.132175e-08
 -1.409385e-07
 -2.788054e-07
 -3.165419e-07
 -3.026433e-07
 -3.120236e-07
 -3.894359e-07
 -4.016111e-07
 -1.490174e-07
 -6.087554e-07
 1.916601e-06
 1.837150e-05
 -2.423972e-06
 -4.672527e-07
 -2.407466e-07
 -2.162932e-07
 -3.583973e-07
 -1.440386e-06
 -1.712541e-07
 6.837228e-07
 9.233429e-09
 -1.791539e-07
 -2.804453e-07
 -2.296291e-07
 1.979817e-07
 5.686274e-07
 3.799034e-07
 0.000000e+00
 0.000000e+00
 -3.063261e-09
 -2.826107e-09
 2.271602e-09
 1.055101e-08
 1.762137e-08
 1.950076e-08
 1.528089e-08
 6.816168e-09
 -3.235385e-09
 -1.284574e-08
 -2.112759e-08
 -2.888365e-08
 -4.119613e-08
 -7.808589e-08
 -2.205334e-07
 -1.266509e-06
 5.320470e-08
 9.388641e-07
 2.701192e-07
 9.664276e-08
 4.784126e-08
 2.083820e-08
 -2.724345e-08
 -9.931845e-08
 -1.631264e-07
 -1.905289e-07
 -1.905219e-07
 -1.995356e-07
 -2.998072e-07
 -1.262387e-06
 2.529170e-07
 1.504125e-06
 1.907593e-05
 4.718875e-08
 -1.872701e-06
 -7.887014e-07
 -4.111555e-07
 -2.455301e-07
 -1.608829e-07
 -1.686833e-07
 1.728358e-05
 -1.910265e-07
 -1.753453e-07
 -2.132218e-07
 -3.277639e-07
 -1.320166e-06
 7.858565e-08
 1.027446e-06
 3.251377e-07
 0.000000e+00
 0.000000e+00
 -1.115551e-08
 -1.491129e-08
 -6.255578e-09
 1.244808e-08
 3.067922e-08
 3.871418e-08
 3.528743e-08
 2.507989e-08
 1.315383e-08
 2.749063e-09
 -4.251339e-09
 -6.278067e-09
 -1.354342e-09
 1.334582e-08
 4.532575e-08
 3.256530e-08
 1.749721e-05
 3.032618e-08
 4.463369e-08
 1.798053e-08
 5.853732e-09
 -8.907435e-09
 -3.437022e-08
 -6.683244e-08
 -9.195211e-08
 -9.579469e-08
 -7.323850e-08
 -2.229214e-08
 7.318568e-08
 1.858069e-07
 1.793498e-05
 1.272112e-06
 4.111004e-07
 -1.365549e-06
 -7.966863e-07
 -6.440360e-07
 -3.987093e-07
 -2.007777e-07
 4.368740e-08
 7.221586e-07
 -1.722548e-07
 -1.480981e-06
 -3.968346e-07
 -1.964294e-07
 -8.162008e-08
 -3.491864e-08
 1.748233e-05
 5.060972e-08
 6.352973e-08
 0.000000e+00
 0.000000e+00
 -2.690930e-08
 -4.074870e-08
 -2.658117e-08
 1.500334e-08
 5.573791e-08
 7.044309e-08
 6.200135e-08
 4.468344e-08
 2.778743e-08
 1.489872e-08
 7.734908e-09
 9.490634e-09
 2.902228e-08
 9.081647e-08
 2.728157e-07
 9.341871e-07
 3.831518e-08
 -1.280070e-06
 -2.243173e-07
 -7.253112e-08
 -3.242873e-08
 -2.581771e-08
 -3.233379e-08
 -4.183791e-08
 -4.403050e-08
 -2.822085e-08
 1.754639e-08
 1.177645e-07
 3.542355e-07
 1.102766e-06
 3.479622e-07
 -8.801729e-07
 -1.146837e-07
 -4.203908e-07
 -5.310401e-07
 -4.518511e-07
 -3.220317e-07
 -1.761000e-07
 -1.487507e-08
 8.156948e-08
 -1.352598e-07
 -3.916213e-07
 -3.189838e-07
 -1.205312e-07
 1.423368e-07
 8.552848e-07
 -1.503677e-09
 -1.287097e-06
 -2.015193e-07
 0.000000e+00
 0.000000e+00
 -5.463209e-08
 -9.712957e-08
 -8.080558e-08
 1.919542e-08
 1.132477e-07
 1.269073e-07
 9.620462e-08
 6.285141e-08
 3.814258e-08
 2.155401e-08
 1.162773e-08
 9.610169e-09
 2.343349e-08
 7.422263e-08
 1.912988e-07
 2.896678e-07
 8.312185e-08
 -1.907020e-07
 -1.741802e-07
 -8.202631e-08
 -4.376257e-08
 -3.059076e-08
 -2.703231e-08
 -2.411262e-08
 -1.416619e-08
 1.083796e-08
 6.070307e-08
 1.501439e-07
 2.961046e-07
 4.117691e-07
 2.186217e-07
 -8.187415e-08
 -1.955569e-07
 -2.782816e-07
 -3.351226e-07
 -3.167334e-07
 -2.511387e-07
 -1.678907e-07
 -9.353932e-08
 -7.346169e-08
 -1.407521e-07
 -2.140099e-07
 -1.923127e-07
 -8.305638e-08
 8.467434e-08
 2.099092e-07
 2.368625e-08
 -2.191496e-07
 -1.585613e-07
 0.000000e+00
 0.000000e+00
 -8.579667e-08
 -2.125509e-07
 -2.483552e-07
 3.366698e-08
 2.786573e-07
 2.238488e-07
 1.267717e-07
 7.099040e-08
 4.038363e-08
 2.197299e-08
 8.606128e-09
 -3.828643e-09
 -1.605276e-08
 -1.501792e-08
 3.654404e-08
 1.229898e-07
 1.192903e-07
 2.571185e-08
 -3.233036e-08
 -3.921132e-08
 -3.270898e-08
 -2.667216e-08
 -2.120475e-08
 -1.335062e-08
 8.646890e-10
 2.584745e-08
 6.572481e-08
 1.216580e-07
 1.804509e-07
 1.935062e-07
 1.087400e-07
 -2.338654e-08
 -1.241895e-07
 -1.910722e-07
 -2.271485e-07
 -2.263241e-07
 -1.967013e-07
 -1.550705e-07
 -1.208116e-07
 -1.130293e-07
 -1.352824e-07
 -1.599055e-07
 -1.523059e-07
 -1.007717e-07
 -1.640996e-08
 4.838634e-08
 2.563297e-08
 -3.573810e-08
 -4.142892e-08
 0.000000e+00
 0.000000e+00
 -7.516370e-08
 -2.494173e-07
 -1.317621e-06
 2.822020e-09
 9.159073e-07
 2.775379e-07
 1.121205e-07
 5.547910e-08
 3.139709e-08
 1.777592e-08
 5.013750e-09
 -1.596086e-08
 -6.145852e-08
 -1.614408e-07
 -1.867246e-07
 7.824693e-08
 2.771032e-07
 1.728873e-07
 5.161127e-08
 -2.492603e-09
 -1.966177e-08
 -2.183862e-08
 -1.761417e-08
 -8.875923e-09
 5.114736e-09
 2.566286e-08
 5.293608e-08
 8.327290e-08
 1.050468e-07
 9.856906e-08
 5.223566e-08
 -1.757310e-08
 -8.344409e-08
 -1.322226e-07
 -1.599511e-07
 -1.658527e-07
 -1.545253e-07
 -1.353142e-07
 -1.193356e-07
 -1.156655e-07
 -1.260752e-07
 -1.434613e-07
 -1.587323e-07
 -1.587008e-07
 -1.071709e-07
 3.176323e-09
 7.730306e-08
 6.417335e-08
 2.589887e-08
 0.000000e+00
 0.000000e+00
 6.511524e-09
 2.408659e-08
 -2.375192e-09
 1.745834e-05
 6.548486e-10
 3.026336e-08
 1.611424e-08
 1.369630e-08
 1.349526e-08
 1.274648e-08
 8.512038e-09
 -6.348730e-09
 -5.379396e-08
 -2.149816e-07
 -1.282783e-06
 2.358264e-08
 9.107497e-07
 2.450826e-07
 6.200089e-08
 3.813390e-10
 -1.929172e-08
 -2.240550e-08
 -1.815257e-08
 -9.567652e-09
 2.644987e-09
 1.817909e-08
 3.571320e-08
 5.154207e-08
 5.883688e-08
 4.971148e-08
 2.135256e-08
 -1.947193e-08
 -6.109736e-08
 -9.462069e-08
 -1.156646e-07
 -1.234519e-07
 -1.205302e-07
 -1.120661e-07
 -1.042514e-07
 -1.023755e-07
 -1.097026e-07
 -1.297473e-07
 -1.740935e-07
 -2.699766e-07
 -2.846011e-07
 5.086877e-09
 2.444829e-07
 1.784641e-07
 7.106843e-08
 0.000000e+00
 0.000000e+00
 8.120811e-08
 2.591237e-07
 9.046039e-07
 -4.355993e-09
 -1.322976e-06
 -2.557322e-07
 -8.741733e-08
 -2.965140e-08
 -3.923065e-09
 1.063431e-08
 2.077165e-08
 2.905881e-08
 3.743438e-08
 5.388162e-08
 2.099447e-08
 1.746884e-05
 -6.583523e-09
 4.952107e-09
 -2.283946e-08
 -3.227195e-08
 -3.326174e-08
 -2.944051e-08
 -2.267873e-08
 -1.383209e-08
 -3.312498e-09
 8.290187e-09
 1.959865e-08
 2.801440e-08
 2.991041e-08
 2.203805e-08
 3.850472e-09
 -2.128548e-08
 -4.766719e-08
 -7.005033e-08
 -8.521163e-08
 -9.222547e-08
 -9.225802e-08
 -8.800576e-08
 -8.279746e-08
 -7.974408e-08
 -8.184726e-08
 -9.500031e-08
 -1.392603e-07
 -2.938410e-07
 -1.349423e-06
 -2.338998e-08
 8.890223e-07
 2.461926e-07
 7.338773e-08
 0.000000e+00
 0.000000e+00
 8.488117e-08
 1.980100e-07
 2.618224e-07
 2.144346e-08
 -2.595541e-07
 -2.269521e-07
 -1.101981e-07
 -4.748419e-08
 -1.192620e-08
 1.237222e-08
 3.473608e-08
 6.489802e-08
 1.247008e-07
 2.897307e-07
 9.234635e-07
 1.300587e-09
 -1.331897e-06
 -2.788627e-07
 -1.223320e-07
 -7.278648e-08
 -5.179080e-08
 -3.924423e-08
 -2.921434e-08
 -1.979919e-08
 -1.048766e-08
 -1.523906e-09
 6.167864e-09
 1.103308e-08
 1.123329e-08
 5.431008e-09
 -6.275174e-09
 -2.198096e-08
 -3.861124e-08
 -5.309264e-08
 -6.326474e-08