<VTKFile type="UnstructuredGrid"  version="0.1"   >
<UnstructuredGrid>  
<Piece  NumberOfPoints="     2601"  NumberOfCells="     5000">  
<Points>  
<DataArray  type="Float64"  NumberOfComponents="3"  format="ascii">  
 0.000000 0.000000 0.000000 
 0.020000 0.000000 0.000000 
 0.040000 0.000000 0.000000 
 0.060000 0.000000 0.000000 
 0.080000 0.000000 0.000000 
 0.100000 0.000000 0.000000 
 0.120000 0.000000 0.000000 
 0.140000 0.000000 0.000000 
 0.160000 0.000000 0.000000 
 0.180000 0.000000 0.000000 
 0.200000 0.000000 0.000000 
 0.220000 0.000000 0.000000 
 0.240000 0.000000 0.000000 
 0.260000 0.000000 0.000000 
 0.280000 0.000000 0.000000 
 0.300000 0.000000 0.000000 
 0.320000 0.000000 0.000000 
 0.340000 0.000000 0.000000 
 0.360000 0.000000 0.000000 
 0.380000 0.000000 0.000000 
 0.400000 0.000000 0.000000 
 0.420000 0.000000 0.000000 
 0.440000 0.000000 0.000000 
 0.460000 0.000000 0.000000 
 0.480000 0.000000 0.000000 
 0.500000 0.000000 0.000000 
 0.520000 0.000000 0.000000 
 0.540000 0.000000 0.000000 
 0.560000 0.000000 0.000000 
 0.580000 0.000000 0.000000 
 0.600000 0.000000 0.000000 
 0.620000 0.000000 0.000000 
 0.640000 0.000000 0.000000 
 0.660000 0.000000 0.000000 
 0.680000 0.000000 0.000000 
 0.700000 0.000000 0.000000 
 0.720000 0.000000 0.000000 
 0.740000 0.000000 0.000000 
 0.760000 0.000000 0.000000 
 0.780000 0.000000 0.000000 
 0.800000 0.000000 0.000000 
 0.820000 0.000000 0.000000 
 0.840000 0.000000 0.000000 
 0.860000 0.000000 0.000000 
 0.880000 0.000000 0.000000 
 0.900000 0.000000 0.000000 
 0.920000 0.000000 0.000000 
 0.940000 0.000000 0.000000 
 0.960000 0.000000 0.000000 
 0.980000 0.000000 0.000000 
 1.000000 0.000000 0.000000 
 0.000000 0.020000 0.000000 
 0.020000 0.020000 0.000000 
 0.040000 0.020000 0.000000 
 0.060000 0.020000 0.000000 
 0.080000 0.020000 0.000000 
 0.100000 0.020000 0.000000 
 0.120000 0.020000 0.000000 
 0.140000 0.020000 0.000000 
 0.160000 0.020000 0.000000 
 0.180000 0.020000 0.000000 
 0.200000 0.020000 0.000000 
 0.220000 0.020000 0.000000 
 0.240000 0.020000 0.000000 
 0.260000 0.020000 0.000000 
 0.280000 0.020000 0.000000 
 0.300000 0.020000 0.000000 
 0.320000 0.020000 0.000000 
 0.340000 0.020000 0.000000 
 0.360000 0.020000 0.000000 
 0.380000 0.020000 0.000000 
 0.400000 0.020000 0.000000 
 0.420000 0.020000 0.000000 
 0.440000 0.020000 0.000000 
 0.460000 0.020000 0.000000 
 0.480000 0.020000 0.000000 
 0.500000 0.020000 0.000000 
 0.520000 0.020000 0.000000 
 0.540000 0.020000 0.000000 
 0.560000 0.020000 0.000000 
 0.580000 0.020000 0.000000 
 0.600000 0.020000 0.000000 
 0.620000 0.020000 0.000000 
 0.640000 0.020000 0.000000 
 0.660000 0.020000 0.000000 
 0.680000 0.020000 0.000000 
 0.700000 0.020000 0.000000 
 0.720000 0.020000 0.000000 
 0.740000 0.020000 0.000000 
 0.760000 0.020000 0.000000 
 0.780000 0.020000 0.000000 
 0.800000 0.020000 0.000000 
 0.820000 0.020000 0.000000 
 0.840000 0.020000 0.000000 
 0.860000 0.020000 0.000000 
 0.880000 0.020000 0.000000 
 0.900000 0.020000 0.000000 
 0.920000 0.020000 0.000000 
 0.940000 0.020000 0.000000 
 0.960000 0.020000 0.000000 
 0.980000 0.020000 0.000000 
 1.000000 0.020000 0.000000 
 0.000000 0.040000 0.000000 
 0.020000 0.040000 0.000000 
 0.040000 0.040000 0.000000 
 0.060000 0.040000 0.000000 
 0.080000 0.040000 0.000000 
 0.100000 0.040000 0.000000 
 0.120000 0.040000 0.000000 
 0.140000 0.040000 0.000000 
 0.160000 0.040000 0.000000 
 0.180000 0.040000 0.000000 
 0.200000 0.040000 0.000000 
 0.220000 0.040000 0.000000 
 0.240000 0.040000 0.000000 
 0.260000 0.040000 0.000000 
 0.280000 0.040000 0.000000 
 0.300000 0.040000 0.000000 
 0.320000 0.040000 0.000000 
 0.340000 0.040000 0.000000 
 0.360000 0.040000 0.000000 
 0.380000 0.040000 0.000000 
 0.400000 0.040000 0.000000 
 0.420000 0.040000 0.000000 
 0.440000 0.040000 0.000000 
 0.460000 0.040000 0.000000 
 0.480000 0.040000 0.000000 
 0.500000 0.040000 0.000000 
 0.520000 0.040000 0.000000 
 0.540000 0.040000 0.000000 
 0.560000 0.040000 0.000000 
 0.580000 0.040000 0.000000 
 0.600000 0.040000 0.000000 
 0.620000 0.040000 0.000000 
 0.640000 0.040000 0.000000 
 0.660000 0.040000 0.000000 
 0.680000 0.040000 0.000000 
 0.700000 0.040000 0.000000 
 0.720000 0.040000 0.000000 
 0.740000 0.040000 0.000000 
 0.760000 0.040000 0.000000 
 0.780000 0.040000 0.000000 
 0.800000 0.040000 0.000000 
 0.820000 0.040000 0.000000 
 0.840000 0.040000 0.000000 
 0.860000 0.040000 0.000000 
 0.880000 0.040000 0.000000 
 0.900000 0.040000 0.000000 
 0.920000 0.040000 0.000000 
 0.940000 0.040000 0.000000 
 0.960000 0.040000 0.000000 
 0.980000 0.040000 0.000000 
 1.000000 0.040000 0.000000 
 0.000000 0.060000 0.000000 
 0.020000 0.060000 0.000000 
 0.040000 0.060000 0.000000 
 0.060000 0.060000 0.000000 
 0.080000 0.060000 0.000000 
 0.100000 0.060000 0.000000 
 0.120000 0.060000 0.000000 
 0.140000 0.060000 0.000000 
 0.160000 0.060000 0.000000 
 0.180000 0.060000 0.000000 
 0.200000 0.060000 0.000000 
 0.220000 0.060000 0.000000 
 0.240000 0.060000 0.000000 
 0.260000 0.060000 0.000000 
 0.280000 0.060000 0.000000 
 0.300000 0.060000 0.000000 
 0.320000 0.060000 0.000000 
 0.340000 0.060000 0.000000 
 0.360000 0.060000 0.000000 
 0.380000 0.060000 0.000000 
 0.400000 0.060000 0.000000 
 0.420000 0.060000 0.000000 
 0.440000 0.060000 0.000000 
 0.460000 0.060000 0.000000 
 0.480000 0.060000 0.000000 
 0.500000 0.060000 0.000000 
 0.520000 0.060000 0.000000 
 0.540000 0.060000 0.000000 
 0.560000 0.060000 0.000000 
 0.580000 0.060000 0.000000 
 0.600000 0.060000 0.000000 
 0.620000 0.060000 0.000000 
 0.640000 0.060000 0.000000 
 0.660000 0.060000 0.000000 
 0.680000 0.060000 0.000000 
 0.700000 0.060000 0.000000 
 0.720000 0.060000 0.000000 
 0.740000 0.060000 0.000000 
 0.760000 0.060000 0.000000 
 0.780000 0.060000 0.000000 
 0.800000 0.060000 0.000000 
 0.820000 0.060000 0.000000 
 0.840000 0.060000 0.000000 
 0.860000 0.060000 0.000000 
 0.880000 0.060000 0.000000 
 0.900000 0.060000 0.000000 
 0.920000 0.060000 0.000000 
 0.940000 0.060000 0.000000 
 0.960000 0.060000 0.000000 
 0.980000 0.060000 0.000000 
 1.000000 0.060000 0.000000 
 0.000000 0.080000 0.000000 
 0.020000 0.080000 0.000000 
 0.040000 0.080000 0.000000 
 0.060000 0.080000 0.000000 
 0.080000 0.080000 0.000000 
 0.100000 0.080000 0.000000 
 0.120000 0.080000 0.000000 
 0.140000 0.080000 0.000000 
 0.160000 0.080000 0.000000 
 0.180000 0.080000 0.000000 
 0.200000 0.080000 0.000000 
 0.220000 0.080000 0.000000 
 0.240000 0.080000 0.000000 
 0.260000 0.080000 0.000000 
 0.280000 0.080000 0.000000 
 0.300000 0.080000 0.000000 
 0.320000 0.080000 0.000000 
 0.340000 0.080000 0.000000 
 0.360000 0.080000 0.000000 
 0.380000 0.080000 0.000000 
 0.400000 0.080000 0.000000 
 0.420000 0.080000 0.000000 
 0.440000 0.080000 0.000000 
 0.460000 0.080000 0.000000 
 0.480000 0.080000 0.000000 
 0.500000 0.080000 0.000000 
 0.520000 0.080000 0.000000 
 0.540000 0.080000 0.000000 
 0.560000 0.080000 0.000000 
 0.580000 0.080000 0.000000 
 0.600000 0.080000 0.000000 
 0.620000 0.080000 0.000000 
 0.640000 0.080000 0.000000 
 0.660000 0.080000 0.000000 
 0.680000 0.080000 0.000000 
 0.700000 0.080000 0.000000 
 0.720000 0.080000 0.000000 
 0.740000 0.080000 0.000000 
 0.760000 0.080000 0.000000 
 0.780000 0.080000 0.000000 
 0.800000 0.080000 0.000000 
 0.820000 0.080000 0.000000 
 0.840000 0.080000 0.000000 
 0.860000 0.080000 0.000000 
 0.880000 0.080000 0.000000 
 0.900000 0.080000 0.000000 
 0.920000 0.080000 0.000000 
 0.940000 0.080000 0.000000 
 0.960000 0.080000 0.000000 
 0.980000 0.080000 0.000000 
 1.000000 0.080000 0.000000 
 0.000000 0.100000 0.000000 
 0.020000 0.100000 0.000000 
 0.040000 0.100000 0.000000 
 0.060000 0.100000 0.000000 
 0.080000 0.100000 0.000000 
 0.100000 0.100000 0.000000 
 0.120000 0.100000 0.000000 
 0.140000 0.100000 0.000000 
 0.160000 0.100000 0.000000 
 0.180000 0.100000 0.000000 
 0.200000 0.100000 0.000000 
 0.220000 0.100000 0.000000 
 0.240000 0.100000 0.000000 
 0.260000 0.100000 0.000000 
 0.280000 0.100000 0.000000 
 0.300000 0.100000 0.000000 
 0.320000 0.100000 0.000000 
 0.340000 0.100000 0.000000 
 0.360000 0.100000 0.000000 
 0.380000 0.100000 0.000000 
 0.400000 0.100000 0.000000 
 0.420000 0.100000 0.000000 
 0.440000 0.100000 0.000000 
 0.460000 0.100000 0.000000 
 0.480000 0.100000 0.000000 
 0.500000 0.100000 0.000000 
 0.520000 0.100000 0.000000 
 0.540000 0.100000 0.000000 
 0.560000 0.100000 0.000000 
 0.580000 0.100000 0.000000 
 0.600000 0.100000 0.000000 
 0.620000 0.100000 0.000000 
 0.640000 0.100000 0.000000 
 0.660000 0.100000 0.000000 
 0.680000 0.100000 0.000000 
 0.700000 0.100000 0.000000 
 0.720000 0.100000 0.000000 
 0.740000 0.100000 0.000000 
 0.760000 0.100000 0.000000 
 0.780000 0.100000 0.000000 
 0.800000 0.100000 0.000000 
 0.820000 0.100000 0.000000 
 0.840000 0.100000 0.000000 
 0.860000 0.100000 0.000000 
 0.880000 0.100000 0.000000 
 0.900000 0.100000 0.000000 
 0.920000 0.100000 0.000000 
 0.940000 0.100000 0.000000 
 0.960000 0.100000 0.000000 
 0.980000 0.100000 0.000000 
 1.000000 0.100000 0.000000 
 0.000000 0.120000 0.000000 
 0.020000 0.120000 0.000000 
 0.040000 0.120000 0.000000 
 0.060000 0.120000 0.000000 
 0.080000 0.120000 0.000000 
 0.100000 0.120000 0.000000 
 0.120000 0.120000 0.000000 
 0.140000 0.120000 0.000000 
 0.160000 0.120000 0.000000 
 0.180000 0.120000 0.000000 
 0.200000 0.120000 0.000000 
 0.220000 0.120000 0.000000 
 0.240000 0.120000 0.000000 
 0.260000 0.120000 0.000000 
 0.280000 0.120000 0.000000 
 0.300000 0.120000 0.000000 
 0.320000 0.120000 0.000000 
 0.340000 0.120000 0.000000 
 0.360000 0.120000 0.000000 
 0.380000 0.120000 0.000000 
 0.400000 0.120000 0.000000 
 0.420000 0.120000 0.000000 
 0.440000 0.120000 0.000000 
 0.460000 0.120000 0.000000 
 0.480000 0.120000 0.000000 
 0.500000 0.120000 0.000000 
 0.520000 0.120000 0.000000 
 0.540000 0.120000 0.000000 
 0.560000 0.120000 0.000000 
 0.580000 0.120000 0.000000 
 0.600000 0.120000 0.000000 
[...]
<PointData  Scalars="U"> 
<DataArray  type="Float64"  Name="U"  format="ascii"> 
 0.000000e+00
 0.000000e+00
 0.000000e+00
 0.000000e+00
 0.000000e+00
 0.000000e+00
 0.000000e+00
 0.000000e+00
 0.000000e+00
 0.000000e+00
 0.000000e+00
 0.000000e+00
 0.000000e+00
 0.000000e+00
 0.000000e+00
 0.000000e+00
 0.000000e+00
 0.000000e+00
 0.000000e+00
 0.000000e+00
 0.000000e+00
 0.000000e+00
 0.000000e+00
 0.000000e+00
 0.000000e+00
 0.000000e+00
 0.000000e+00
 0.000000e+00
 0.000000e+00
 0.000000e+00
 0.000000e+00
 0.000000e+00
 0.000000e+00
 0.000000e+00
 0.000000e+00
 0.000000e+00
 0.000000e+00
 0.000000e+00
 0.000000e+00
 0.000000e+00
 0.000000e+00
 0.000000e+00
 0.000000e+00
 0.000000e+00
 0.000000e+00
 0.000000e+00
 0.000000e+00
 0.000000e+00
 0.000000e+00
 0.000000e+00
 0.000000e+00
 0.000000e+00
 -1.553012e-08
 -5.594988e-08
 -1.599706e-07
 -2.043203e-07
 4.150863e-08
 2.535501e-07
 1.983021e-07
 1.385543e-07
 1.612554e-07
 2.776234e-07
 2.781450e-07
 1.745633e-05
 -2.474418e-07
 -1.867458e-07
 -2.432926e-07
 -1.283241e-06
 -4.160610e-08
 7.860636e-07
 1.365979e-07
 2.797668e-09
 -1.937236e-08
 -3.132997e-08
 -1.456766e-07
 -1.212069e-06
 2.045884e-08
 8.469560e-07
 2.055452e-07
 9.558729e-08
 1.280205e-07
 2.453728e-07
 2.153426e-07
 1.729702e-05
 -4.424960e-07
 -1.092799e-07
 1.087804e-07
 1.747496e-05
 -1.276704e-07
 -1.757973e-07
 -1.761020e-07
 -7.374558e-08
 2.501361e-08
 4.744910e-08
 3.176832e-08
 1.762025e-08
 1.172538e-08
 9.539588e-09
 7.604498e-09
 5.123565e-09
 2.331143e-09
 0.000000e+00
 0.000000e+00
 -9.216543e-09
 -4.993679e-08
 -2.080308e-07
 -1.276272e-06
 3.389517e-08
 9.406120e-07
 3.154152e-07
 1.953524e-07
 2.360303e-07
 4.209242e-07
 1.041806e-06
 3.892335e-08
 -1.360301e-06
 -2.915726e-07
 -7.871948e-08
 -4.611883e-08
 1.740463e-05
 -8.247583e-08
 -6.675464e-08
 -7.399350e-08
 -5.021997e-08
 1.555438e-09
 7.759481e-08
 8.146338e-08
 1.752270e-05
 3.069363e-08
 5.629453e-08
 8.485841e-08
 1.817550e-07
 3.846903e-07
 9.801553e-07
 -1.680316e-07
 -2.625682e-06
 -2.634553e-07
 3.287672e-07
 -5.385252e-09
 -7.325032e-07
 -4.813197e-07
 -4.764073e-07
 -1.369198e-07
 1.535286e-07
 1.282636e-07
 5.527115e-08
 2.574068e-08
 2.019634e-08
 1.934229e-08
 1.590675e-08
 1.046808e-08
 4.949673e-09
 0.000000e+00
 0.000000e+00
 2.238367e-08
 4.395200e-08
 7.136212e-08
 4.830686e-08
 1.750892e-05
 5.464293e-08
 1.001654e-07
 1.238298e-07
 1.920071e-07
 3.024413e-07
 3.554727e-07
 9.252456e-08
 -1.958276e-07
 -1.177984e-07
 1.627037e-07
 8.531837e-07
 -5.025685e-08
 -1.381591e-06
 -3.303085e-07
 -1.749769e-07
 -1.101717e-07
 7.038433e-09
 2.939963e-07
 1.029570e-06
 1.226350e-07
 -1.231427e-06
 -1.795344e-07
 1.518960e-08
 1.478313e-07
 2.973486e-07
 3.840843e-07
 1.656895e-07
 -1.196287e-07
 1.744071e-05
 4.615694e-08
 1.722456e-05
 -6.514526e-07
 -7.771447e-07
 -1.690426e-06
 -2.290533e-07
 7.724956e-07
 1.705093e-07
 2.896246e-08
 1.090401e-08
 2.639036e-08
 3.306811e-08
 2.628236e-08
 1.561478e-08
 6.764556e-09
 0.000000e+00
 0.000000e+00
 5.553769e-08
 1.365175e-07
 3.194435e-07
 9.689144e-07
 6.248169e-08
 -1.252240e-06
 -1.754155e-07
 1.235926e-08
 1.010299e-07
 1.581820e-07
 1.636160e-07
 8.987363e-08
 1.826899e-08
 4.878224e-08
 1.684408e-07
 2.425555e-07
 4.568427e-10
 -2.924814e-07
 -2.813867e-07
 -2.050503e-07
 -2.230805e-07
 -1.609909e-07
 2.389179e-07
 5.454146e-07
 2.448103e-07
 -1.341571e-07
 -1.442254e-07
 -2.207754e-08
 8.565659e-08
 1.893558e-07
 2.755589e-07
 4.006619e-07
 1.028746e-06
 2.670436e-07
 -4.713369e-07
 -4.992365e-07
 -1.860632e-06
 -7.935831e-07
 -5.062245e-07
 1.722528e-05
 -1.003439e-07
 -7.860849e-08
 -1.027215e-07
 -3.199848e-08
 4.895419e-08
 6.223204e-08
 3.931679e-08
 1.797897e-08
 6.146566e-09
 0.000000e+00
 0.000000e+00
 6.914532e-08
 1.546159e-07
 2.732628e-07
 3.417678e-07
 1.034136e-07
 -1.777687e-07
 -1.463806e-07
 -3.129871e-08
 2.881140e-08
 6.018571e-08
 7.825719e-08
 9.002544e-08
 1.018306e-07
 1.219928e-07
 1.433214e-07
 1.219867e-07
 1.907019e-08
 -9.332604e-08
 -1.314144e-07
 -1.408211e-07
 -2.480509e-07
 -1.255794e-06
 1.094149e-07
 1.012872e-06
 2.775667e-07
 6.020133e-09
 -7.118789e-08
 -4.646237e-08
 2.070627e-08
 1.037923e-07
 1.850692e-07
 3.076630e-07
 4.530824e-07
 3.228881e-07
 1.054670e-08
 -3.796149e-07
 -7.752385e-07
 -7.357308e-07
 2.643822e-07
 -7.183538e-08
 -1.211034e-06
 -3.756968e-07
 -3.629158e-07
 -8.190611e-08
 1.666712e-07
 1.238374e-07
 4.459098e-08
 9.478202e-09
 -2.839371e-10
 0.000000e+00
 0.000000e+00
 6.755304e-08
 1.355625e-07
 1.918311e-07
 1.936290e-07
 1.047212e-07
 -1.729345e-10
 -3.230990e-08
 -2.038839e-08
 -1.688523e-08
 -2.605137e-08
 -8.432437e-10
 9.120414e-08
 1.748050e-07
 1.863826e-07
 1.570735e-07
 1.107323e-07
 5.104473e-08
 -5.149777e-11
 -1.712711e-08
 -6.078828e-11
 4.347688e-08
 4.329360e-08
 1.751680e-05
 4.273209e-08
 2.306167e-08
 -4.971082e-08
 -9.328780e-08
 -1.059907e-07
 -6.319121e-08
 3.365671e-08
 6.266922e-08
 7.897620e-08
 3.151275e-07
 4.172670e-07
 1.601322e-07
 -1.690809e-07
 -5.217578e-07
 -1.718595e-06
 -1.400530e-06
 5.984914e-07
 5.619137e-07
 -3.553217e-07
 -1.507931e-06
 -1.860311e-07
 7.473398e-07
 1.363196e-07
 1.882274e-09
 -2.276972e-08
 -1.584677e-08
 0.000000e+00
 0.000000e+00
 6.391851e-08
 1.219397e-07
 1.611640e-07
 1.638244e-07
 1.261618e-07
 7.447489e-08
 3.687635e-08
 8.656930e-09
 -3.972726e-08
 -1.458260e-07
 -1.748936e-07
 1.046846e-07
 3.442014e-07
 2.849215e-07
 1.831284e-07
 1.183102e-07
 7.546627e-08
 5.305461e-08
 6.126319e-08
 1.196043e-07
 2.964546e-07
 9.466695e-07
 3.677878e-08
 -1.296626e-06
 -2.602168e-07
 -1.358512e-07
 -1.401496e-07
 -2.213065e-07
 -2.321924e-07
 3.543289e-08
 1.447383e-07
 -9.632657e-07
 2.411912e-07
 1.039864e-06
 2.884708e-07
 3.069228e-08
 -6.320404e-08
 -1.126955e-07
 1.728502e-05
 1.719248e-05
 -3.299842e-07
 -3.152819e-07
 -3.211831e-07
 1.718273e-05
 -2.308109e-07
 -1.557989e-07
 -1.231017e-07
 -8.002795e-08
 -3.854274e-08
 0.000000e+00
 0.000000e+00
 6.478146e-08
 1.257110e-07
 1.692048e-07
 1.811769e-07
 1.622047e-07
 1.277026e-07
 9.261028e-08
 5.665695e-08
 -3.947161e-09
 -1.727563e-07
 -1.241131e-06
 7.552666e-08
 9.833737e-07
 3.397757e-07
 1.692258e-07
 1.075526e-07
 8.134199e-08
 7.608589e-08
 9.477720e-08
 1.480541e-07
 2.481148e-07
 3.063431e-07
 6.018394e-08
 -2.315710e-07
 -2.167824e-07
 -1.276631e-07
 -1.190545e-07
 -2.416266e-07
 -1.270759e-06
 8.274219e-08
 1.030826e-06
 3.700750e-07
 1.765281e-05
 1.127112e-07
 9.732432e-08
 9.646752e-08
 2.675332e-07
 1.038705e-06
 7.331554e-07
 -1.534587e-06
 -1.787339e-06
 -4.153608e-07
 4.484526e-07
 -3.655140e-07
 -1.619005e-06
 -4.887406e-07
 -2.541930e-07
 -1.342929e-07
 -5.757334e-08
 0.000000e+00
 0.000000e+00
 6.713387e-08
 1.466361e-07
 2.117544e-07
 2.324718e-07
 2.136341e-07
 1.786217e-07
 1.457338e-07
 1.225733e-07
 1.106827e-07
 1.162283e-07
 8.084779e-08
 1.753407e-05
 6.973883e-08
 9.349905e-08
 7.436499e-08
 6.849817e-08
 6.858687e-08
 7.621052e-08
 9.486415e-08
 1.256051e-07
 1.560951e-07
 1.426287e-07
 4.714620e-08
 -5.711553e-08
 -8.043631e-08
 -4.650615e-08
 3.180196e-10
 5.905807e-08
 8.107406e-08
 1.761831e-05
 3.393135e-07
 1.011901e-06
 8.051985e-08
 -1.250368e-06
 -1.811326e-07
 2.689629e-08
 1.954320e-07
 3.361666e-07
 1.268928e-07
 -4.169527e-07
 -6.590420e-07
 -4.511319e-07
 -2.424723e-07
 -4.024815e-07
 -6.212837e-07
 -5.124983e-07
 -3.003012e-07
 -1.497895e-07
 -5.757673e-08
 0.000000e+00
 0.000000e+00
 4.744147e-08
 1.815304e-07
 3.067756e-07
 3.263162e-07
 2.797246e-07
 2.253946e-07
 1.880336e-07
 1.775655e-07
 2.122140e-07
 3.639143e-07
 9.933423e-07
 7.358353e-08
 -1.253062e-06
 -1.922792e-07
 -2.929064e-08
 2.452134e-08
 4.858331e-08
 6.504163e-08
 8.119377e-08
 9.695507e-08
 1.041427e-07
 8.858390e-08
 4.745967e-08
 6.940759e-09
 -1.490662e-09
 3.114597e-08
 1.137461e-07
 3.155300e-07
 1.002714e-06
 1.608750e-07
 -1.052580e-06
 7.208001e-08
 -7.649354e-09
 -2.378970e-07
 -1.799713e-07
 -3.612700e-08
 5.447998e-08
 6.928927e-08
 -5.311485e-08
 -2.659035e-07
 -4.011967e-07
 -4.051732e-07
 -3.943619e-07
 -4.653074e-07
 -5.397381e-07
 -4.778864e-07
 -2.841809e-07
 -1.024566e-07
 -2.133343e-08
 0.000000e+00
 0.000000e+00
 -1.051172e-07
 2.280048e-07
 5.414047e-07
 4.843769e-07
 3.461357e-07
 2.530994e-07
 2.044712e-07
 1.937179e-07
 2.242676e-07
 3.060394e-07
 3.511926e-07
 9.902573e-08
 -1.902593e-07
 -1.643082e-07
 -5.344614e-08
 3.854084e-09
 3.434147e-08
 5.313813e-08
 6.653714e-08
 7.532973e-08
 7.651987e-08
 6.667471e-08
 4.829375e-08
 3.314714e-08
 3.580907e-08
 6.682335e-08
 1.369380e-07
 2.598196e-07
 3.509203e-07
 1.501514e-07
 -9.485650e-08
 -7.495027e-08
 -5.692839e-08
 -1.040014e-07
 -9.910740e-08
 -5.489775e-08
 -2.376076e-08
 -3.789946e-08
 -1.113075e-07
 -2.194956e-07
 -3.115740e-07
 -3.695838e-07
 -4.252774e-07
 -5.111206e-07
 -6.263058e-07
 -6.055288e-07
 -2.420530e-07
 7.498682e-08
 7.206687e-08
 0.000000e+00
 0.000000e+00
 -1.317526e-06
 2.177790e-07
 1.347685e-06
 6.350973e-07
 3.575368e-07
 2.369549e-07
 1.848672e-07
 1.706368e-07
 1.814781e-07
 1.994373e-07
 1.785069e-07
 7.925945e-08
 -2.671035e-08
 -5.219590e-08
 -2.437764e-08
 7.520377e-09
 3.041848e-08
 4.577000e-08
 5.580611e-08
 6.110513e-08
 6.098313e-08
 5.523227e-08
 4.638958e-08
 4.043363e-08
 4.467544e-08
 6.503994e-08
 1.038043e-07
 1.502700e-07
 1.614948e-07
 9.501313e-08
 1.025847e-08
 -2.328213e-08
 -3.708623e-08
 -5.471958e-08
 -6.071223e-08
 -5.507347e-08
 -5.547690e-08
 -7.812738e-08
 -1.282521e-07
 -1.963598e-07
 -2.667689e-07
 -3.358629e-07
 -4.177987e-07
 -5.277432e-07
 -6.919791e-07
 -1.661713e-06
 -2.295107e-07
 7.445967e-07
 1.461459e-07
 0.000000e+00
 0.000000e+00
 -1.162346e-06
 1.762021e-05
 1.068144e-06
 4.380794e-07
 2.355492e-07
 1.602313e-07
 1.300031e-07
 1.220324e-07
 1.256112e-07
 1.279615e-07
 1.117316e-07
 7.062700e-08
 2.672706e-08
 6.323285e-09
 9.351807e-09
 2.165744e-08
 3.395096e-08
 4.338864e-08
 4.956507e-08
 5.235640e-08
 5.157896e-08
 4.755693e-08
 4.183542e-08
 3.723259e-08
 3.695526e-08
 4.335410e-08
 5.646796e-08
 7.122443e-08
 7.570196e-08
 6.107981e-08
 3.655890e-08
 1.515485e-08
 -3.923836e-09
 -2.251197e-08
 -3.718445e-08
 -4.849390e-08
 -6.309363e-08
 -8.802598e-08
 -1.257679e-07
 -1.733714e-07
 -2.269952e-07
 -2.897597e-07
 -3.777673e-07
 -5.189078e-07
 -5.662878e-07
 -3.424918e-07
 1.734510e-05
 -1.275512e-07
 -7.279274e-08
 0.000000e+00
 0.000000e+00
 9.285816e-07
 1.761024e-05
 -1.156483e-06
 -9.819718e-08
 1.714158e-08
 4.517300e-08
 5.435904e-08
 6.133710e-08
 6.959144e-08
 7.655819e-08
 7.630138e-08
 6.578897e-08
 5.041403e-08
 3.907276e-08
 3.531680e-08
 3.695939e-08
 4.066104e-08
 4.426711e-08
 4.667464e-08
 4.725593e-08
 4.564374e-08
 4.182498e-08
 3.623568e-08
 2.955837e-08
 2.222044e-08
 1.414302e-08
 5.957224e-09
 2.546156e-09
 1.328797e-08
 3.786156e-08
 5.601276e-08
 5.156182e-08
 3.025298e-08
 4.724629e-09
 -1.828093e-08
 -3.862437e-08
 -5.950426e-08
 -8.404324e-08
 -1.131578e-07
 -1.455974e-07
 -1.803674e-07
 -2.210134e-07
 -2.837050e-07
 -4.300404e-07
 -1.377319e-06
 5.165320e-07
 4.144662e-07
 -1.557159e-06
 -3.877511e-07
 0.000000e+00
 0.000000e+00
 1.214315e-06
 3.025883e-07
 -1.361567e-06
 -3.650235e-07
 -1.409255e-07
 -5.685381e-08
 -2.067920e-08
 -1.564969e-09
 1.413520e-08
 3.283317e-08
 5.293573e-08
 6.654799e-08
 6.882345e-08
 6.313335e-08
 5.580304e-08
 5.047388e-08
 4.764532e-08
 4.640976e-08
 4.564442e-08
 4.440787e-08
 4.199960e-08
 3.791569e-08
 3.167755e-08
 2.242303e-08
 8.252103e-09
 -1.423586e-08
 -4.799855e-08
 -8.183256e-08
 -6.779650e-08
 2.203502e-08
 1.031047e-07
 1.056376e-07
 6.726392e-08
 2.827296e-08
 -2.595199e-09
 -2.816818e-08
 -5.182508e-08
 -7.505189e-08
 -9.721830e-08
 -1.162007e-07
 -1.295769e-07
 -1.352854e-07
 -1.294586e-07
 -9.702768e-08
 -8.612338e-08
 1.734239e-05
 -5.102233e-07
 -1.760002e-06
 -4.619153e-07
 0.000000e+00
 0.000000e+00
 4.191141e-07
 9.082548e-07
 -1.244156e-07
 -2.783066e-07
 -1.873931e-07
 -1.186627e-07
 -8.080617e-08
 -6.196773e-08
 -4.574517e-08
 -1.368146e-08
 3.672515e-08
 8.041820e-08
 9.565374e-08
 8.819275e-08
 7.371434e-08
 6.128245e-08
 5.302463e-08
 4.812009e-08
 4.512721e-08
 4.276742e-08
 4.004237e-08
 3.610506e-08
 2.996318e-08
 1.991221e-08
 2.440461e-09
 -2.996385e-08
 -9.306631e-08
 -2.139862e-07
 -2.538898e-07
 1.924577e-08
 2.556273e-07
 1.961737e-07
 9.844250e-08
 4.239410e-08
 7.894793e-09
 -1.927288e-08
 -4.420315e-08
 -6.685108e-08
 -8.442185e-08
 -9.254509e-08
 -8.631651e-08
 -5.970161e-08
 3.683435e-09
 1.709220e-07
 7.822555e-07
 -2.477402e-07
 -1.661392e-06
 -4.246125e-07
 1.741695e-05
 0.000000e+00
 0.000000e+00
 1.742658e-05
 -1.168928e-07
 -2.024717e-07
 -2.392866e-07
 -1.966926e-07
 -1.483492e-07
 -1.213483e-07
 -1.187238e-07
 -1.241021e-07
 -8.498368e-08
 2.808413e-08
 1.290791e-07
 1.464970e-07
 1.185889e-07
 8.837007e-08
 6.749740e-08
 5.498959e-08
 4.796181e-08
 4.402889e-08
 4.152138e-08
 3.928012e-08
 3.639367e-08
 3.188429e-08
 2.421482e-08
 1.026432e-08
 -1.745193e-08
 -8.054030e-08
 -2.578501e-07
 -1.336834e-06
 -2.933087e-08
 8.753408e-07
 2.387451e-07
 8.395423e-08
 3.705059e-08
 1.261571e-08
 -1.182644e-08
 -3.844105e-08
 -6.345619e-08
 -8.100485e-08
 -8.325082e-08
 -6.234229e-08
 -1.492981e-08
 5.873859e-08
 1.589100e-07
 1.839983e-07
 -1.767229e-07
 -1.355242e-06
 6.844283e-07
 9.485172e-07
 0.000000e+00
 0.000000e+00
 -3.085908e-07
 -1.517905e-06
 -4.484506e-07
 -2.786286e-07
 -2.010750e-07
 -1.538387e-07
 -1.355398e-07
 -1.588206e-07
 -2.474293e-07
 -2.600442e-07
 3.574985e-08
 2.887084e-07
 2.386218e-07
 1.448461e-07
 9.216465e-08
 6.521898e-08
 5.160001e-08
 4.483488e-08
 4.159059e-08
 4.005138e-08
 3.915622e-08
 3.822391e-08
 3.673812e-08
 3.420553e-08
 3.008915e-08
 2.396257e-08
 1.660722e-08
 1.622602e-08
 -3.278314e-08
 1.740392e-05
 -6.892796e-08
 -3.031031e-08
 -1.087388e-08
 1.736998e-08
 2.021241e-08
 -1.502460e-09
 -3.403016e-08
 -6.713084e-08
 -9.275743e-08
 -9.802475e-08
 -6.585278e-08
 4.825380e-09
 8.380933e-08
 1.328342e-07
 1.224794e-07
 7.626309e-08
 9.308250e-08
 1.773367e-05
 2.306087e-07
 0.000000e+00
 0.000000e+00
 -2.265623e-07
 -4.500300e-07
 -3.931160e-07
 -2.609847e-07
 -1.811036e-07
 -1.318250e-07
 -1.104742e-07
 -1.339703e-07
 -2.778359e-07
 -1.327696e-06
 3.740819e-09
 9.233077e-07
 2.888120e-07
 1.260070e-07
 7.171333e-08
 5.060560e-08
 4.183605e-08
 3.841746e-08
 3.756348e-08
 3.799674e-08
 3.909530e-08
 4.060986e-08
 4.262702e-08
 4.578112e-08
 5.204204e-08
 6.734119e-08
 1.111428e-07
 2.569409e-07
 8.657590e-07
 -8.837243e-08
 -1.448216e-06
 -3.692035e-07
 -1.095772e-07
 3.018360e-08
 5.411589e-08
 1.844392e-08
 -2.953863e-08
 -7.731252e-08
 -1.234070e-07
 -1.528594e-07
 -1.148592e-07
 1.558806e-08
 1.405113e-07
 1.689804e-07
 1.367193e-07
 1.791612e-07
 8.544519e-07
 2.715620e-07
 -8.931373e-07
 0.000000e+00
 0.000000e+00
 -1.424454e-07
 -2.424090e-07
 -2.478108e-07
 -1.942731e-07
 -1.338734e-07
 -8.429860e-08
 -4.715174e-08
 -1.857802e-08
 1.354984e-08
 -3.759386e-09
 1.746247e-05
 7.923532e-09
 3.924063e-08
 2.605422e-08
 2.441077e-08
 2.539506e-08
 2.728289e-08
 2.964811e-08
 3.234571e-08
 3.533324e-08
 3.866866e-08
 4.257163e-08
 4.756264e-08
 5.477236e-08
 6.664467e-08
 8.847580e-08
 1.309901e-07
 2.066737e-07
 2.247986e-07
 -8.730886e-08
 -4.938172e-07
 -5.026722e-07
 -1.140151e-07
 1.797039e-07
 1.418985e-07
 4.379282e-08
 -2.667290e-08
 -8.764546e-08
 -1.619022e-07
 -2.760129e-07
 -2.874595e-07
 3.436159e-08
 3.219080e-07
 2.770618e-07
 1.029047e-07
 -4.587637e-08
 -8.214733e-07
 4.356553e-07
 9.064794e-07
 0.000000e+00
 0.000000e+00
 -9.241522e-08
 -1.533326e-07
 -1.616108e-07
 -1.262338e-07
 -7.402006e-08
 -2.364297e-08
 2.559811e-08
 9.741403e-08
 2.717844e-07
 9.154717e-07
 5.279167e-09
 -1.314442e-06
 -2.483297e-07
 -8.123419e-08
 -2.480828e-08
 -5.803962e-10
 1.228456e-08
 2.056014e-08
 2.685336e-08
 3.234698e-08
 3.772041e-08
 4.353726e-08
 5.047625e-08
 5.953547e-08
 7.220632e-08
 9.024947e-08
 1.132232e-07
 1.272073e-07
 8.360153e-08
 -7.470577e-08
 -3.522678e-07
 -1.448868e-06
 -1.064342e-07
 8.301708e-07
 2.030218e-07
 3.663416e-08
 -3.295731e-08
 -8.582928e-08
 -1.601384e-07
 -3.332288e-07
 -1.380053e-06
 8.981699e-10
 1.004560e-06
 4.267140e-07
 1.774158e-07
 -8.980433e-07
 3.303545e-07
 1.855285e-05
 2.837770e-07
 0.000000e+00
 0.000000e+00
 -7.485916e-08
 -1.233468e-07
 -1.224089e-07
 -7.304253e-08
 -8.796787e-09
 4.140063e-08
 8.224215e-08
 1.379924e-07
 2.324529e-07
 2.844787e-07
 3.649682e-08
 -2.497085e-07
 -2.210336e-07
 -1.076537e-07
 -4.835174e-08
 -1.693886e-08
 1.320245e-09
 1.325533e-08
 2.208850e-08
 2.946514e-08
 3.634820e-08
 4.343369e-08
 5.135782e-08
 6.077448e-08
 7.222668e-08
 8.547864e-08
 9.759202e-08
 9.968127e-08
 7.804708e-08
 3.159558e-08
 -5.625435e-09
 -6.157300e-08
 1.739456e-05
 -5.818073e-08
 -2.479836e-08
 -4.050123e-08
 -5.116821e-08
 -6.664738e-08
 -8.728824e-08
 -9.946744e-08
 -1.319068e-07
 1.741351e-05
 1.592258e-07
 3.979515e-07
 5.222847e-07
 6.370713e-07
 1.867289e-05
 2.220215e-07
 -1.121527e-06
 0.000000e+00
 0.000000e+00
 -8.344721e-08
 -1.470137e-07
 -1.390054e-07
 -3.357699e-08
 7.785165e-08
 1.187592e-07
 1.243364e-07
 1.350025e-07
 1.496830e-07
 1.254149e-07
 2.348310e-08
 -8.397163e-08
 -1.094690e-07
 -8.038072e-08
 -4.646633e-08
 -2.137076e-08
 -3.856514e-09
 8.817880e-09
 1.867809e-08
 2.703738e-08
 3.476661e-08
 4.249906e-08
 5.074120e-08
 5.988216e-08
 7.005727e-08
 8.079975e-08
 9.061427e-08
 9.759408e-08
 1.044243e-07
 1.336352e-07
 2.707491e-07
 8.900810e-07
 -3.074488e-08
 -1.352550e-06
 -2.856359e-07
 -1.183716e-07
 -6.363725e-08
 -4.082485e-08
 -1.577231e-08
 8.222017e-08
 6.140961e-07
 -2.470476e-07
 -1.093014e-06
 4.452399e-07
 8.228772e-07
 1.497186e-06
 5.668373e-07
 -1.052640e-06
 -2.801534e-07
 0.000000e+00
 0.000000e+00
 -1.037193e-07
 -2.432287e-07
 -2.831737e-07
 4.203823e-09
 2.628094e-07
 2.276917e-07
 1.538085e-07
 1.203942e-07
 1.019225e-07
 7.162343e-08
 2.035380e-08
 -2.990743e-08
 -5.284201e-08
 -4.919930e-08
 -3.423338e-08
 -1.818831e-08
 -4.350354e-09
 7.073527e-09
 1.669750e-08
 2.520269e-08
 3.316327e-08
 4.103905e-08
 4.918979e-08
 5.786138e-08
 6.713162e-08
 7.687008e-08
 8.696354e-08
 9.845794e-08
 1.165678e-07
 1.553744e-07
 2.351416e-07
 2.766562e-07
 2.386463e-08
 -2.622712e-07
 -2.306166e-07
 -1.130863e-07
 -4.940571e-08
 -1.342875e-08
 9.307979e-09
 1.043712e-08
 -1.828835e-07
 -1.457423e-06
 -2.740995e-08
 1.298978e-06
 8.768586e-07
 7.572656e-07
 4.021518e-07
 -2.463328e-08
 -1.092794e-07
 0.000000e+00
 0.000000e+00
 -8.767398e-08
 -2.699727e-07
 -1.338931e-06
 -1.173284e-08
 9.135240e-07
 2.896542e-07
 1.379961e-07
 9.107970e-08
 6.861622e-08
 4.568490e-08
 1.718173e-08
 -9.575476e-09
 -2.520306e-08
 -2.779712e-08
 -2.183470e-08
 -1.236443e-08
 -2.332853e-09
 7.126829e-09
 1.581438e-08
 2.389328e-08
 3.162898e-08
 3.928642e-08
 4.708994e-08
 5.520187e-08
 6.371745e-08
 7.272384e-08
 8.253768e-08
 9.423317e-08
 1.101481e-07
 1.322753e-07
 1.516865e-07
 1.289759e-07
 2.918093e-08
 -7.383195e-08
 -9.235689e-08
 -5.417820e-08
 -9.806672e-09
 2.509615e-08
 4.394691e-08
 1.893621e-08
 -1.438516e-07
 -1.271480e-06
 1.755625e-05
 1.139241e-06
 6.244012e-07
 4.414151e-07
 2.607486e-07
 8.286868e-08
 8.325348e-10
 0.000000e+00
 0.000000e+00
 -5.342729e-09
 5.888256e-09
 -1.810483e-08
 1.745313e-05
 9.456608e-09
 5.137593e-08
 4.465932e-08
 4.365276e-08
 3.856676e-08
 2.763862e-08
 1.261502e-08
 -2.032993e-09
 -1.178934e-08
 -1.490566e-08
 -1.250683e-08
 -6.793612e-09
 3.997467e-10
 8.004171e-09
 1.555280e-08
 2.292550e-08
 3.016581e-08
 3.737716e-08
 4.466909e-08
 5.213263e-08
 5.984131e-08
 6.789029e-08
 7.647839e-08
 8.593946e-08
 9.632097e-08
 1.056011e-07
 1.062344e-07
 8.558966e-08
 4.182374e-08
 3.147492e-10
 -1.118096e-08
 7.135705e-09
 4.009577e-08
 7.681381e-08
 1.118237e-07
 1.444600e-07
 2.205065e-07
 7.851767e-07
 1.759957e-05
 -9.279971e-07
 1.292494e-07
 1.793887e-07
 1.328255e-07
 6.590728e-08
 2.025491e-08
 0.000000e+00
 0.000000e+00
 6.413412e-08
 2.337245e-07
 8.856854e-07
 -3.854546e-09
 -1.300832e-06
 -2.203721e-07
 -5.009436e-08
 1.103057e-09
 1.490198e-08