<VTKFile type="UnstructuredGrid"  version="0.1"   >
<UnstructuredGrid>  
<Piece  NumberOfPoints="     2601"  NumberOfCells="     5000">  
<Points>  
<DataArray  type="Float64"  NumberOfComponents="3"  format="ascii">  
 0.000000 0.000000 0.000000 
 0.020000 0.000000 0.000000 
 0.040000 0.000000 0.000000 
 0.060000 0.000000 0.000000 
 0.080000 0.000000 0.000000 
 0.100000 0.000000 0.000000 
 0.120000 0.000000 0.000000 
 0.140000 0.000000 0.000000 
 0.160000 0.000000 0.000000 
 0.180000 0.000000 0.000000 
 0.200000 0.000000 0.000000 
 0.220000 0.000000 0.000000 
 0.240000 0.000000 0.000000 
 0.260000 0.000000 0.000000 
 0.280000 0.000000 0.000000 
 0.300000 0.000000 0.000000 
 0.320000 0.000000 0.000000 
 0.340000 0.000000 0.000000 
 0.360000 0.000000 0.000000 
 0.380000 0.000000 0.000000 
 0.400000 0.000000 0.000000 
 0.420000 0.000000 0.000000 
 0.440000 0.000000 0.000000 
 0.460000 0.000000 0.000000 
 0.480000 0.000000 0.000000 
 0.500000 0.000000 0.000000 
 0.520000 0.000000 0.000000 
 0.540000 0.000000 0.000000 
 0.560000 0.000000 0.000000 
 0.580000 0.000000 0.000000 
 0.600000 0.000000 0.000000 
 0.620000 0.000000 0.000000 
 0.640000 0.000000 0.000000 
 0.660000 0.000000 0.000000 
 0.680000 0.000000 0.000000 
 0.700000 0.000000 0.000000 
 0.720000 0.000000 0.000000 
 0.740000 0.000000 0.000000 
 0.760000 0.000000 0.000000 
 0.780000 0.000000 0.000000 
 0.800000 0.000000 0.000000 
 0.820000 0.000000 0.000000 
 0.840000 0.000000 0.000000 
 0.860000 0.000000 0.000000 
 0.880000 0.000000 0.000000 
 0.900000 0.000000 0.000000 
 0.920000 0.000000 0.000000 
 0.940000 0.000000 0.000000 
 0.960000 0.000000 0.000000 
 0.980000 0.000000 0.000000 
 1.000000 0.000000 0.000000 
 0.000000 0.020000 0.000000 
 0.020000 0.020000 0.000000 
 0.040000 0.020000 0.000000 
 0.060000 0.020000 0.000000 
 0.080000 0.020000 0.000000 
 0.100000 0.020000 0.000000 
 0.120000 0.020000 0.000000 
 0.140000 0.020000 0.000000 
 0.160000 0.020000 0.000000 
 0.180000 0.020000 0.000000 
 0.200000 0.020000 0.000000 
 0.220000 0.020000 0.000000 
 0.240000 0.020000 0.000000 
 0.260000 0.020000 0.000000 
 0.280000 0.020000 0.000000 
 0.300000 0.020000 0.000000 
 0.320000 0.020000 0.000000 
 0.340000 0.020000 0.000000 
 0.360000 0.020000 0.000000 
 0.380000 0.020000 0.000000 
 0.400000 0.020000 0.000000 
 0.420000 0.020000 0.000000 
 0.440000 0.020000 0.000000 
 0.460000 0.020000 0.000000 
 0.480000 0.020000 0.000000 
 0.500000 0.020000 0.000000 
 0.520000 0.020000 0.000000 
 0.540000 0.020000 0.000000 
 0.560000 0.020000 0.000000 
 0.580000 0.020000 0.000000 
 0.600000 0.020000 0.000000 
 0.620000 0.020000 0.000000 
 0.640000 0.020000 0.000000 
 0.660000 0.020000 0.000000 
 0.680000 0.020000 0.000000 
 0.700000 0.020000 0.000000 
 0.720000 0.020000 0.000000 
 0.740000 0.020000 0.000000 
 0.760000 0.020000 0.000000 
 0.780000 0.020000 0.000000 
 0.800000 0.020000 0.000000 
 0.820000 0.020000 0.000000 
 0.840000 0.020000 0.000000 
 0.860000 0.020000 0.000000 
 0.880000 0.020000 0.000000 
 0.900000 0.020000 0.000000 
 0.920000 0.020000 0.000000 
 0.940000 0.020000 0.000000 
 0.960000 0.020000 0.000000 
 0.980000 0.020000 0.000000 
 1.000000 0.020000 0.000000 
 0.000000 0.040000 0.000000 
 0.020000 0.040000 0.000000 
 0.040000 0.040000 0.000000 
 0.060000 0.040000 0.000000 
 0.080000 0.040000 0.000000 
 0.100000 0.040000 0.000000 
 0.120000 0.040000 0.000000 
 0.140000 0.040000 0.000000 
 0.160000 0.040000 0.000000 
 0.180000 0.040000 0.000000 
 0.200000 0.040000 0.000000 
 0.220000 0.040000 0.000000 
 0.240000 0.040000 0.000000 
 0.260000 0.040000 0.000000 
 0.280000 0.040000 0.000000 
 0.300000 0.040000 0.000000 
 0.320000 0.040000 0.000000 
 0.340000 0.040000 0.000000 
 0.360000 0.040000 0.000000 
 0.380000 0.040000 0.000000 
 0.400000 0.040000 0.000000 
 0.420000 0.040000 0.000000 
 0.440000 0.040000 0.000000 
 0.460000 0.040000 0.000000 
 0.480000 0.040000 0.000000 
 0.500000 0.040000 0.000000 
 0.520000 0.040000 0.000000 
 0.540000 0.040000 0.000000 
 0.560000 0.040000 0.000000 
 0.580000 0.040000 0.000000 
 0.600000 0.040000 0.000000 
 0.620000 0.040000 0.000000 
 0.640000 0.040000 0.000000 
 0.660000 0.040000 0.000000 
 0.680000 0.040000 0.000000 
 0.700000 0.040000 0.000000 
 0.720000 0.040000 0.000000 
 0.740000 0.040000 0.000000 
 0.760000 0.040000 0.000000 
 0.780000 0.040000 0.000000 
 0.800000 0.040000 0.000000 
 0.820000 0.040000 0.000000 
 0.840000 0.040000 0.000000 
 0.860000 0.040000 0.000000 
 0.880000 0.040000 0.000000 
 0.900000 0.040000 0.000000 
 0.920000 0.040000 0.000000 
 0.940000 0.040000 0.000000 
 0.960000 0.040000 0.000000 
 0.980000 0.040000 0.000000 
 1.000000 0.040000 0.000000 
 0.000000 0.060000 0.000000 
 0.020000 0.060000 0.000000 
 0.040000 0.060000 0.000000 
 0.060000 0.060000 0.000000 
 0.080000 0.060000 0.000000 
 0.100000 0.060000 0.000000 
 0.120000 0.060000 0.000000 
 0.140000 0.060000 0.000000 
 0.160000 0.060000 0.000000 
 0.180000 0.060000 0.000000 
 0.200000 0.060000 0.000000 
 0.220000 0.060000 0.000000 
 0.240000 0.060000 0.000000 
 0.260000 0.060000 0.000000 
 0.280000 0.060000 0.000000 
 0.300000 0.060000 0.000000 
 0.320000 0.060000 0.000000 
 0.340000 0.060000 0.000000 
 0.360000 0.060000 0.000000 
 0.380000 0.060000 0.000000 
 0.400000 0.060000 0.000000 
 0.420000 0.060000 0.000000 
 0.440000 0.060000 0.000000 
 0.460000 0.060000 0.000000 
 0.480000 0.060000 0.000000 
 0.500000 0.060000 0.000000 
 0.520000 0.060000 0.000000 
 0.540000 0.060000 0.000000 
 0.560000 0.060000 0.000000 
 0.580000 0.060000 0.000000 
 0.600000 0.060000 0.000000 
 0.620000 0.060000 0.000000 
 0.640000 0.060000 0.000000 
 0.660000 0.060000 0.000000 
 0.680000 0.060000 0.000000 
 0.700000 0.060000 0.000000 
 0.720000 0.060000 0.000000 
 0.740000 0.060000 0.000000 
 0.760000 0.060000 0.000000 
 0.780000 0.060000 0.000000 
 0.800000 0.060000 0.000000 
 0.820000 0.060000 0.000000 
 0.840000 0.060000 0.000000 
 0.860000 0.060000 0.000000 
 0.880000 0.060000 0.000000 
 0.900000 0.060000 0.000000 
 0.920000 0.060000 0.000000 
 0.940000 0.060000 0.000000 
 0.960000 0.060000 0.000000 
 0.980000 0.060000 0.000000 
 1.000000 0.060000 0.000000 
 0.000000 0.080000 0.000000 
 0.020000 0.080000 0.000000 
 0.040000 0.080000 0.000000 
 0.060000 0.080000 0.000000 
 0.080000 0.080000 0.000000 
 0.100000 0.080000 0.000000 
 0.120000 0.080000 0.000000 
 0.140000 0.080000 0.000000 
 0.160000 0.080000 0.000000 
 0.180000 0.080000 0.000000 
 0.200000 0.080000 0.000000 
 0.220000 0.080000 0.000000 
 0.240000 0.080000 0.000000 
 0.260000 0.080000 0.000000 
 0.280000 0.080000 0.000000 
 0.300000 0.080000 0.000000 
 0.320000 0.080000 0.000000 
 0.340000 0.080000 0.000000 
 0.360000 0.080000 0.000000 
 0.380000 0.080000 0.000000 
 0.400000 0.080000 0.000000 
 0.420000 0.080000 0.000000 
 0.440000 0.080000 0.000000 
 0.460000 0.080000 0.000000 
 0.480000 0.080000 0.000000 
 0.500000 0.080000 0.000000 
 0.520000 0.080000 0.000000 
 0.540000 0.080000 0.000000 
 0.560000 0.080000 0.000000 
 0.580000 0.080000 0.000000 
 0.600000 0.080000 0.000000 
 0.620000 0.080000 0.000000 
 0.640000 0.080000 0.000000 
 0.660000 0.080000 0.000000 
 0.680000 0.080000 0.000000 
 0.700000 0.080000 0.000000 
 0.720000 0.080000 0.000000 
 0.740000 0.080000 0.000000 
 0.760000 0.080000 0.000000 
 0.780000 0.080000 0.000000 
 0.800000 0.080000 0.000000 
 0.820000 0.080000 0.000000 
 0.840000 0.080000 0.000000 
 0.860000 0.080000 0.000000 
 0.880000 0.080000 0.000000 
 0.900000 0.080000 0.000000 
 0.920000 0.080000 0.000000 
 0.940000 0.080000 0.000000 
 0.960000 0.080000 0.000000 
 0.980000 0.080000 0.000000 
 1.000000 0.080000 0.000000 
 0.000000 0.100000 0.000000 
 0.020000 0.100000 0.000000 
 0.040000 0.100000 0.000000 
 0.060000 0.100000 0.000000 
 0.080000 0.100000 0.000000 
 0.100000 0.100000 0.000000 
 0.120000 0.100000 0.000000 
 0.140000 0.100000 0.000000 
 0.160000 0.100000 0.000000 
 0.180000 0.100000 0.000000 
 0.200000 0.100000 0.000000 
 0.220000 0.100000 0.000000 
 0.240000 0.100000 0.000000 
 0.260000 0.100000 0.000000 
 0.280000 0.100000 0.000000 
 0.300000 0.100000 0.000000 
 0.320000 0.100000 0.000000 
 0.340000 0.100000 0.000000 
 0.360000 0.100000 0.000000 
 0.380000 0.100000 0.000000 
 0.400000 0.100000 0.000000 
 0.420000 0.100000 0.000000 
 0.440000 0.100000 0.000000 
 0.460000 0.100000 0.000000 
 0.480000 0.100000 0.000000 
 0.500000 0.100000 0.000000 
 0.520000 0.100000 0.000000 
 0.540000 0.100000 0.000000 
 0.560000 0.100000 0.000000 
 0.580000 0.100000 0.000000 
 0.600000 0.100000 0.000000 
 0.620000 0.100000 0.000000 
 0.640000 0.100000 0.000000 
 0.660000 0.100000 0.000000 
 0.680000 0.100000 0.000000 
 0.700000 0.100000 0.000000 
 0.720000 0.100000 0.000000 
 0.740000 0.100000 0.000000 
 0.760000 0.100000 0.000000 
 0.780000 0.100000 0.000000 
 0.800000 0.100000 0.000000 
 0.820000 0.100000 0.000000 
 0.840000 0.100000 0.000000 
 0.860000 0.100000 0.000000 
 0.880000 0.100000 0.000000 
 0.900000 0.100000 0.000000 
 0.920000 0.100000 0.000000 
 0.940000 0.100000 0.000000 
 0.960000 0.100000 0.000000 
 0.980000 0.100000 0.000000 
 1.000000 0.100000 0.000000 
 0.000000 0.120000 0.000000 
 0.020000 0.120000 0.000000 
 0.040000 0.120000 0.000000 
 0.060000 0.120000 0.000000 
 0.080000 0.120000 0.000000 
 0.100000 0.120000 0.000000 
 0.120000 0.120000 0.000000 
 0.140000 0.120000 0.000000 
 0.160000 0.120000 0.000000 
 0.180000 0.120000 0.000000 
 0.200000 0.120000 0.000000 
 0.220000 0.120000 0.000000 
 0.240000 0.120000 0.000000 
 0.260000 0.120000 0.000000 
 0.280000 0.120000 0.000000 
 0.300000 0.120000 0.000000 
 0.320000 0.120000 0.000000 
 0.340000 0.120000 0.000000 
 0.360000 0.120000 0.000000 
 0.380000 0.120000 0.000000 
 0.400000 0.120000 0.000000 
 0.420000 0.120000 0.000000 
 0.440000 0.120000 0.000000 
 0.460000 0.120000 0.000000 
 0.480000 0.120000 0.000000 
 0.500000 0.120000 0.000000 
 0.520000 0.120000 0.000000 
 0.540000 0.120000 0.000000 
 0.560000 0.120000 0.000000 
 0.580000 0.120000 0.000000 
 0.600000 0.120000 0.000000 
[...]
<PointData  Scalars="U"> 
<DataArray  type="Float64"  Name="U"  format="ascii"> 
 0.000000e+00
 0.000000e+00
 0.000000e+00
 0.000000e+00
 0.000000e+00
 0.000000e+00
 0.000000e+00
 0.000000e+00
 0.000000e+00
 0.000000e+00
 0.000000e+00
 0.000000e+00
 0.000000e+00
 0.000000e+00
 0.000000e+00
 0.000000e+00
 0.000000e+00
 0.000000e+00
 0.000000e+00
 0.000000e+00
 0.000000e+00
 0.000000e+00
 0.000000e+00
 0.000000e+00
 0.000000e+00
 0.000000e+00
 0.000000e+00
 0.000000e+00
 0.000000e+00
 0.000000e+00
 0.000000e+00
 0.000000e+00
 0.000000e+00
 0.000000e+00
 0.000000e+00
 0.000000e+00
 0.000000e+00
 0.000000e+00
 0.000000e+00
 0.000000e+00
 0.000000e+00
 0.000000e+00
 0.000000e+00
 0.000000e+00
 0.000000e+00
 0.000000e+00
 0.000000e+00
 0.000000e+00
 0.000000e+00
 0.000000e+00
 0.000000e+00
 0.000000e+00
 4.768812e-09
 9.016356e-09
 1.248394e-08
 1.533706e-08
 1.821696e-08
 2.229314e-08
 2.953002e-08
 4.353440e-08
 7.178067e-08
 1.309893e-07
 2.566512e-07
 2.545319e-07
 1.742570e-05
 -2.821299e-07
 -2.012672e-07
 -1.207497e-07
 -6.944519e-08
 -4.452835e-08
 -5.459396e-08
 -1.858136e-07
 -1.273937e-06
 -6.099533e-08
 7.452455e-07
 7.226412e-08
 -1.003081e-07
 -2.033177e-07
 -3.775941e-07
 -5.579718e-07
 -6.213825e-07
 -1.265717e-06
 -3.409997e-06
 -3.749340e-06
 -1.506790e-06
 -2.024612e-06
 -2.717209e-07
 8.966133e-07
 1.724421e-07
 -1.705990e-07
 -2.958271e-07
 -7.346033e-08
 1.342571e-07
 7.736665e-08
 6.275820e-09
 -1.267857e-08
 -8.588115e-09
 -4.115046e-10
 4.536297e-09
 5.285048e-09
 3.029127e-09
 0.000000e+00
 0.000000e+00
 1.010594e-08
 1.888703e-08
 2.566204e-08
 3.072994e-08
 3.535570e-08
 4.166572e-08
 5.285629e-08
 7.419935e-08
 1.157916e-07
 2.001530e-07
 3.896550e-07
 9.988322e-07
 -2.375936e-08
 -1.446020e-06
 -3.991652e-07
 -2.044779e-07
 -1.150668e-07
 -6.304650e-08
 -2.715760e-08
 1.165489e-09
 -4.631828e-08
 1.735927e-05
 -1.625576e-07
 -1.825353e-07
 -2.417682e-07
 -3.323400e-07
 -5.836178e-07
 -1.839912e-06
 -8.869315e-07
 -5.785889e-07
 -1.820878e-06
 -1.944275e-06
 -1.555004e-06
 -2.209029e-06
 1.701291e-05
 7.349515e-07
 4.332830e-08
 -3.634791e-07
 -1.507852e-06
 -2.120823e-07
 6.999216e-07
 8.191262e-08
 -4.237079e-08
 -4.566538e-08
 -1.928991e-08
 3.423029e-09
 1.357498e-08
 1.350882e-08
 7.829010e-09
 0.000000e+00
 0.000000e+00
 1.688517e-08
 3.093850e-08
 4.071134e-08
 4.669990e-08
 5.096781e-08
 5.646214e-08
 6.673056e-08
 8.633347e-08
 1.218828e-07
 1.829111e-07
 2.753579e-07
 3.006905e-07
 1.126271e-09
 -3.335089e-07
 -3.250469e-07
 -2.063331e-07
 -1.285402e-07
 -6.768640e-08
 9.406132e-09
 1.831517e-07
 8.136526e-07
 -1.299680e-07
 -1.500258e-06
 -4.859962e-07
 -3.564863e-07
 -3.316361e-07
 -3.710524e-07
 -5.625034e-07
 1.660256e-05
 -1.269802e-06
 -1.502973e-06
 -1.222694e-06
 -7.407350e-07
 -1.000127e-06
 1.693932e-05
 -8.876675e-07
 -4.017611e-07
 -3.737278e-07
 -3.756994e-07
 1.711576e-05
 -3.085148e-07
 -2.368565e-07
 -1.860095e-07
 -1.013015e-07
 -2.242270e-08
 2.160603e-08
 3.301672e-08
 2.708058e-08
 1.451570e-08
 0.000000e+00
 0.000000e+00
 2.675338e-08
 4.762495e-08
 5.981474e-08
 6.452410e-08
 6.543274e-08
 6.663448e-08
 7.160383e-08
 8.308882e-08
 1.028117e-07
 1.288226e-07
 1.450992e-07
 1.059265e-07
 -2.215710e-08
 -1.546068e-07
 -1.935713e-07
 -1.655200e-07
 -1.245177e-07
 -8.334369e-08
 -2.488895e-08
 7.967257e-08
 1.458107e-07
 -1.110902e-07
 -4.492470e-07
 -4.930673e-07
 -4.036286e-07
 -2.696676e-07
 -8.552170e-08
 4.406548e-07
 -6.896569e-07
 -2.335423e-06
 -2.407539e-06
 -8.175279e-07
 5.182536e-07
 6.944192e-07
 1.695206e-05
 -2.076062e-06
 -8.807727e-07
 -4.352741e-07
 3.422620e-07
 -4.755810e-07
 -1.731646e-06
 -6.199240e-07
 -3.662249e-07
 -1.494989e-07
 1.624128e-08
 7.426373e-08
 6.847112e-08
 4.620799e-08
 2.273969e-08
 0.000000e+00
 0.000000e+00
 4.308681e-08
 7.374143e-08
 8.682348e-08
 8.617955e-08
 7.947173e-08
 7.292066e-08
 6.984197e-08
 7.117701e-08
 7.561708e-08
 7.816749e-08
 6.763514e-08
 2.924748e-08
 -3.710890e-08
 -1.009193e-07
 -1.304810e-07
 -1.280463e-07
 -1.164581e-07
 -1.128395e-07
 -1.115516e-07
 -7.713868e-08
 -2.579467e-08
 -8.559277e-08
 -2.667492e-07
 -4.653895e-07
 -5.208065e-07
 -2.294387e-07
 5.589317e-08
 -1.016791e-08
 -4.162358e-07
 -7.835456e-07
 -7.896362e-07
 1.690750e-05
 -1.659818e-07
 6.330246e-07
 -5.570798e-07
 -2.206312e-06
 -1.077641e-06
 -6.847910e-07
 -4.622624e-07
 -5.500667e-07
 -7.370413e-07
 -7.308450e-07
 -5.712909e-07
 -1.486024e-07
 1.892958e-07
 1.865718e-07
 1.138237e-07
 6.491560e-08
 2.997570e-08
 0.000000e+00
 0.000000e+00
 7.323856e-08
 1.191777e-07
 1.281700e-07
 1.135199e-07
 9.281678e-08
 7.535725e-08
 6.333816e-08
 5.560015e-08
 4.919456e-08
 3.942706e-08
 2.023691e-08
 -1.247790e-08
 -5.412898e-08
 -8.918832e-08
 -1.029876e-07
 -9.820714e-08
 -9.718385e-08
 -1.317428e-07
 -2.378146e-07
 -2.848902e-07
 -5.562504e-08
 9.059786e-08
 -1.006492e-07
 -4.179097e-07
 -1.560136e-06
 -2.677830e-07
 6.366337e-07
 -3.136210e-08
 -2.606136e-07
 -2.559823e-07
 3.760080e-07
 -4.201703e-07
 -1.563365e-06
 -4.246968e-07
 -5.997710e-07
 -9.512833e-07
 -9.494857e-07
 -8.714296e-07
 -8.213933e-07
 -6.070068e-07
 -4.963239e-07
 -6.694546e-07
 -1.631863e-06
 -1.434667e-07
 8.763067e-07
 2.825485e-07
 1.306907e-07
 7.085596e-08
 3.295724e-08
 0.000000e+00
 0.000000e+00
 1.338881e-07
 2.064193e-07
 1.934793e-07
 1.450578e-07
 1.017265e-07
 7.187585e-08
 5.229894e-08
 3.839642e-08
 2.582037e-08
 1.029155e-08
 -1.209344e-08
 -4.293166e-08
 -7.768582e-08
 -1.021324e-07
 -9.781795e-08
 -6.587612e-08
 -4.301051e-08
 -7.924083e-08
 -2.555202e-07
 -1.352255e-06
 -8.027318e-08
 7.705928e-07
 6.987105e-08
 -1.358339e-07
 -2.591433e-07
 1.715719e-05
 -3.152611e-07
 -2.841894e-07
 -2.782889e-07
 -2.068936e-07
 -1.353057e-07
 -3.258596e-07
 -5.563041e-07
 -5.466811e-07
 -5.740692e-07
 -6.802685e-07
 -7.401957e-07
 -8.561436e-07
 -1.901238e-06
 -6.357844e-07
 1.413446e-07
 -5.211496e-07
 -3.680463e-07
 1.743904e-05
 7.450238e-08
 1.042684e-07
 8.199710e-08
 6.115806e-08
 3.243614e-08
 0.000000e+00
 0.000000e+00
 2.605222e-07
 3.978632e-07
 2.888225e-07
 1.651469e-07
 9.585658e-08
 5.807865e-08
 3.565999e-08
 1.986112e-08
 5.413442e-09
 -1.166475e-08
 -3.497097e-08
 -6.765652e-08
 -1.101155e-07
 -1.471599e-07
 -1.280071e-07
 -2.579110e-08
 6.996293e-08
 8.488225e-08
 6.178384e-08
 -1.521449e-08
 1.739682e-05
 -1.007669e-07
 -7.974140e-08
 8.026431e-09
 5.871367e-07
 -3.652886e-07
 -1.689964e-06
 -5.861281e-07
 -3.590170e-07
 -2.494513e-07
 -2.181371e-07
 -2.809815e-07
 -3.739845e-07
 -4.273423e-07
 -4.668520e-07
 -5.037709e-07
 -5.119850e-07
 -4.858997e-07
 -5.116243e-07
 1.690603e-05
 -7.095321e-07
 -1.684848e-06
 2.387454e-07
 5.377388e-07
 -1.105238e-06
 -1.109586e-07
 3.791770e-08
 6.135665e-08
 3.501224e-08
 0.000000e+00
 0.000000e+00
 2.589075e-07
 1.008057e-06
 3.157053e-07
 1.281374e-07
 6.053010e-08
 3.013158e-08
 1.292132e-08
 1.558548e-10
 -1.232106e-08
 -2.735772e-08
 -4.820602e-08
 -8.093857e-08
 -1.393185e-07
 -2.490238e-07
 -2.712608e-07
 2.500992e-08
 2.919087e-07
 2.874084e-07
 3.446097e-07
 9.114013e-07
 -5.078573e-08
 -1.405123e-06
 -3.510203e-07
 -1.622378e-07
 -1.364732e-07
 -4.382019e-07
 -7.261961e-07
 -5.959207e-07
 -3.531173e-07
 -2.253926e-07
 -1.845535e-07
 -2.034273e-07
 -2.578330e-07
 -3.138773e-07
 -3.530606e-07
 -3.632417e-07
 -3.187029e-07
 -1.457687e-07
 5.108964e-07
 -3.806101e-07
 -1.680210e-06
 -7.156950e-07
 1.587380e-05
 -5.285477e-07
 1.651725e-07
 -1.186871e-07
 1.194471e-07
 1.042458e-07
 3.991746e-08
 0.000000e+00
 0.000000e+00
 1.743011e-05
 -1.446047e-08
 1.628777e-08
 3.381708e-10
 -5.099889e-09
 -9.064730e-09
 -1.364637e-08
 -1.965293e-08
 -2.754373e-08
 -3.763610e-08
 -5.074141e-08
 -7.112836e-08
 -1.177061e-07
 -2.692889e-07
 -1.316536e-06
 2.458335e-08
 9.636844e-07
 3.702367e-07
 2.861867e-07
 2.651692e-07
 -2.521578e-08
 -3.431083e-07
 -3.449416e-07
 -2.830477e-07
 -3.571497e-07
 -6.073440e-07
 -7.961855e-07
 -5.507375e-07
 -2.085324e-07
 -1.205781e-07
 -9.136554e-08
 -8.676844e-08
 -1.445133e-07
 -2.183586e-07
 -2.658187e-07
 -2.725806e-07
 -2.277188e-07
 -1.169496e-07
 -2.142369e-08
 -1.808783e-07
 -2.596387e-07
 4.507370e-07
 -4.214055e-07
 1.554672e-05
 -1.943480e-06
 -3.862419e-07
 6.540494e-07
 1.146830e-07
 1.631940e-08
 0.000000e+00
 0.000000e+00
 -2.781842e-07
 -1.437617e-06
 -3.196462e-07
 -1.339022e-07
 -7.151814e-08
 -4.750618e-08
 -3.874446e-08
 -3.754539e-08
 -4.059594e-08
 -4.530323e-08
 -4.781454e-08
 -4.208868e-08
 -2.132916e-08
 2.218892e-08
 2.377004e-08
 1.750656e-05
 6.569046e-08
 1.116955e-07
 1.066257e-07
 6.666367e-08
 -5.320986e-08
 -1.828516e-07
 -2.412878e-07
 -2.747624e-07
 -3.758064e-07
 -6.571069e-07
 -1.913829e-06
 -7.067200e-07
 3.744945e-07
 -4.286134e-08
 2.422288e-08
 1.150788e-07
 -2.029595e-08
 -1.550152e-07
 -2.190852e-07
 -2.319003e-07
 -2.060446e-07
 -1.563552e-07
 -1.200749e-07
 -1.177145e-07
 -4.396346e-08
 1.718366e-07
 5.980546e-07
 -5.663164e-07
 -1.863545e-06
 1.682885e-05
 -3.288241e-07
 -1.430064e-07
 -6.331330e-08
 0.000000e+00
 0.000000e+00
 -1.982926e-07
 -3.926841e-07
 -3.138774e-07
 -1.763490e-07
 -1.066543e-07
 -7.263687e-08
 -5.686616e-08
 -5.127839e-08
 -5.176450e-08
 -5.472405e-08
 -5.293242e-08
 -2.853928e-08
 5.485166e-08
 2.733902e-07
 9.636663e-07
 7.651371e-08
 -1.241759e-06
 -1.849315e-07
 -3.802139e-08
 -2.405897e-08
 -6.778003e-08
 -1.254641e-07
 -1.668134e-07
 -1.966605e-07
 -2.391339e-07
 -3.164628e-07
 -5.625665e-07
 1.575494e-05
 -5.599255e-07
 -6.882462e-07
 -2.364259e-08
 7.178797e-07
 2.094420e-08
 -1.646496e-07
 -2.213588e-07
 -2.297425e-07
 -2.132986e-07
 -1.845277e-07
 -1.542753e-07
 -1.200670e-07
 -5.901744e-08
 2.907540e-08
 4.117890e-08
 -1.332859e-07
 2.389190e-07
 -5.299687e-07
 -1.604925e-06
 -3.814768e-07
 -1.231810e-07
 0.000000e+00
 0.000000e+00
 -1.192295e-07
 -2.011760e-07
 -1.994360e-07
 -1.523924e-07
 -1.090742e-07
 -8.097222e-08
 -6.540515e-08
 -5.903985e-08
 -5.995877e-08
 -6.717299e-08
 -7.741918e-08
 -7.009527e-08
 1.683613e-08
 2.255965e-07
 3.833137e-07
 1.576929e-07
 -1.538242e-07
 -1.582627e-07
 -7.839697e-08
 -5.747715e-08
 -6.973857e-08
 -9.204948e-08
 -1.070685e-07
 -1.046815e-07
 -6.748123e-08
 7.951562e-08
 7.116937e-07
 -2.457244e-07
 1.589288e-05
 -5.395009e-07
 1.710720e-05
 -3.164408e-07
 -2.706192e-07
 -2.739983e-07
 -2.652793e-07
 -2.512363e-07
 -2.332654e-07
 -2.121590e-07
 -1.868160e-07
 -1.533356e-07
 -1.131137e-07
 -8.886032e-08
 -1.200201e-07
 -1.883776e-07
 -2.151563e-07
 -3.279483e-07
 -3.980819e-07
 -2.363124e-07
 -7.628525e-08
 0.000000e+00
 0.000000e+00
 -6.929716e-08
 -1.168428e-07
 -1.292845e-07
 -1.159225e-07
 -9.490422e-08
 -7.688402e-08
 -6.501860e-08
 -5.971639e-08
 -6.171287e-08
 -7.469578e-08
 -1.098589e-07
 -1.901864e-07
 -1.767310e-07
 1.475705e-07
 3.857012e-07
 2.381720e-07
 3.621450e-08
 -4.844641e-08
 -5.929266e-08
 -5.828691e-08
 -6.252318e-08
 -6.764193e-08
 -6.422028e-08
 -4.054503e-08
 2.355770e-08
 1.670125e-07
 3.894068e-07
 8.191891e-07
 -2.295719e-07
 -8.959712e-07
 -6.403253e-07
 -1.743457e-06
 -5.964531e-07
 -3.916992e-07
 -3.141094e-07
 -2.766833e-07
 -2.560772e-07
 -2.432698e-07
 -2.280140e-07
 -1.973194e-07
 -1.561418e-07
 -1.445423e-07
 -2.088230e-07
 -3.721219e-07
 -4.764899e-07
 -2.521615e-07
 3.166917e-08
 8.536771e-08
 5.209437e-08
 0.000000e+00
 0.000000e+00
 -4.194000e-08
 -7.271803e-08
 -8.634721e-08
 -8.520913e-08
 -7.643114e-08
 -6.626331e-08
 -5.813650e-08
 -5.352830e-08
 -5.362896e-08
 -6.251658e-08
 -9.786341e-08
 -2.367335e-07
 -1.271606e-06
 6.948770e-08
 9.733158e-07
 2.917584e-07
 7.516799e-08
 -1.117632e-08
 -4.180607e-08
 -5.119153e-08
 -5.385849e-08
 -5.164190e-08
 -4.043362e-08
 -1.327626e-08
 3.856438e-08
 1.193936e-07
 2.099782e-07
 2.034576e-07
 -6.771342e-08
 -3.365593e-07
 -5.346280e-07
 -6.798938e-07
 -5.719679e-07
 -4.144227e-07
 -3.301837e-07
 -2.871496e-07
 -2.706464e-07
 -2.755399e-07
 -2.875081e-07
 -2.595924e-07
 -1.706142e-07
 -1.186900e-07
 -1.970384e-07
 -4.456404e-07
 -1.632899e-06
 -3.451434e-07
 8.412242e-07
 4.373933e-07
 2.011192e-07
 0.000000e+00
 0.000000e+00
 -2.662324e-08
 -4.740355e-08
 -5.902164e-08
 -6.184230e-08
 -5.879980e-08
 -5.326827e-08
 -4.766383e-08
 -4.296511e-08
 -3.838295e-08
 -3.063918e-08
 -1.306763e-08
 2.695942e-08
 2.910606e-08
 1.750969e-05
 4.914435e-08
 5.318646e-08
 4.738318e-09
 -2.569182e-08
 -4.208138e-08
 -4.872861e-08
 -4.921307e-08
 -4.423358e-08
 -3.221104e-08
 -1.085389e-08
 2.042101e-08
 5.528976e-08
 7.110731e-08
 2.461196e-08
 -1.060538e-07
 -2.605220e-07
 -3.865628e-07
 -4.525780e-07
 -4.306787e-07
 -3.658301e-07
 -3.084891e-07
 -2.727776e-07
 -2.631526e-07
 -2.925200e-07
 -3.877773e-07
 -4.133591e-07
 -1.447111e-07
 5.947780e-08
 -5.325481e-08
 -1.779490e-07
 -3.208719e-07
 1.616350e-05
 5.085023e-08
 9.620379e-07
 2.542567e-07
 0.000000e+00
 0.000000e+00
 -1.760737e-08
 -3.194313e-08
 -4.095225e-08
 -4.438133e-08
 -4.346780e-08
 -4.010411e-08
 -3.600583e-08
 -3.187811e-08
 -2.571812e-08
 -7.930475e-09
 5.201747e-08
 2.439307e-07
 9.303644e-07
 5.715275e-08
 -1.257910e-06
 -2.152946e-07
 -8.156405e-08
 -5.491540e-08
 -5.189517e-08
 -5.185775e-08
 -4.963755e-08
 -4.373727e-08
 -3.352880e-08
 -1.936588e-08
 -3.951064e-09
 5.471959e-09
 -4.371981e-09
 -4.820875e-08
 -1.268629e-07
 -2.178208e-07
 -2.932486e-07
 -3.330748e-07
 -3.308752e-07
 -3.011788e-07
 -2.644988e-07
 -2.338698e-07
 -2.195790e-07
 -2.444003e-07
 -3.891851e-07
 -1.445724e-06
 -1.353207e-07
 7.357161e-07
 1.628843e-08
 -3.959722e-08
 8.587923e-07
 2.338469e-07
 1.639475e-05
 -8.847602e-08
 2.089701e-08
 0.000000e+00
 0.000000e+00
 -1.208501e-08
 -2.213831e-08
 -2.872681e-08
 -3.136908e-08
 -3.055275e-08
 -2.752437e-08
 -2.400069e-08
 -2.177188e-08
 -2.167089e-08
 -1.953654e-08
 1.001748e-08
 1.317652e-07
 2.881333e-07
 1.322516e-07
 -1.475665e-07
 -1.603937e-07
 -9.215114e-08
 -6.789068e-08
 -6.064685e-08
 -5.758673e-08
 -5.382153e-08
 -4.768361e-08
 -3.916560e-08
 -2.988566e-08
 -2.348428e-08
 -2.574271e-08
 -4.350086e-08
 -8.107728e-08
 -1.349267e-07
 -1.922312e-07
 -2.374127e-07
 -2.601574e-07
 -2.594060e-07
 -2.415842e-07
 -2.138482e-07
 -1.802401e-07
 -1.435244e-07
 -1.062534e-07
 -6.340200e-08
 -7.302109e-08
 1.739161e-05
 -9.375869e-08
 -1.994072e-07
 -1.235829e-06
 2.697126e-07
 1.853767e-06
 2.606732e-07
 -1.245134e-06
 -1.988550e-07
 0.000000e+00
 0.000000e+00
 -8.701760e-09
 -1.596732e-08
 -2.061568e-08
 -2.194321e-08
 -1.992941e-08
 -1.546373e-08
 -1.059922e-08
 -8.962760e-09
 -1.706458e-08
 -4.828205e-08
 -1.285019e-07
 -1.303455e-07
 1.344792e-07
 2.764870e-07
 1.079383e-07
 -2.388855e-08
 -6.073501e-08
 -6.659064e-08
 -6.640334e-08
 -6.446956e-08
 -6.061581e-08
 -5.427111e-08
 -4.590812e-08
 -3.791297e-08
 -3.461040e-08
 -4.111936e-08
 -6.139067e-08
 -9.583045e-08
 -1.390529e-07
 -1.797768e-07
 -2.057127e-07
 -2.121813e-07
 -2.050119e-07
 -1.911699e-07
 -1.688878e-07
 -1.299029e-07
 -6.725487e-08
 3.099446e-08
 2.322797e-07
 9.024765e-07
 2.527935e-08
 -1.252894e-06
 -1.482037e-07
 -8.535534e-08
 1.644180e-05
 2.779211e-07
 8.780548e-07
 -6.893120e-08
 -1.473534e-07
 0.000000e+00
 0.000000e+00
 -6.798473e-09
 -1.249369e-08
 -1.593835e-08
 -1.600980e-08
 -1.195030e-08
 -4.045047e-09
 5.621346e-09
 1.258030e-08
 8.216560e-09
 -2.976695e-08
 -1.827243e-07
 -1.247162e-06
 4.867681e-08
 9.075891e-07
 2.114641e-07
 1.333493e-08
 -5.009568e-08
 -6.884674e-08
 -7.341599e-08
 -7.325041e-08
 -7.008167e-08
 -6.322003e-08
 -5.264304e-08
 -4.140226e-08
 -3.574076e-08
 -4.214778e-08
 -6.409511e-08
 -1.006624e-07
 -1.453532e-07
 -1.835392e-07
 -1.956983e-07
 -1.780506e-07
 -1.553785e-07
 -1.479024e-07
 -1.412193e-07
 -1.034675e-07
 -2.006590e-08
 9.485870e-08
 2.323610e-07
 3.202907e-07
 1.363077e-07
 -2.460743e-08
 2.454257e-07
 1.059046e-06
 1.765940e-07
 1.627010e-05
 -2.567423e-07
 -1.693175e-07
 -1.153680e-07
 0.000000e+00
 0.000000e+00
 -5.988355e-09
 -1.126692e-08
 -1.468374e-08
 -1.437792e-08
 -8.128136e-09
 5.228384e-09
 2.401303e-08
 4.382876e-08
 6.044114e-08
 7.298759e-08
 8.899517e-08
 5.023109e-08
 1.748510e-05
 -9.513674e-09
 -1.752273e-08
 -5.916140e-08
 -7.625575e-08
 -8.226264e-08
 -8.408088e-08
 -8.467158e-08
 -8.335295e-08
 -7.646435e-08
 -6.068300e-08
 -3.935869e-08
 -2.422179e-08
 -2.689530e-08
 -5.133061e-08
 -9.593117e-08
 -1.566348e-07
 -2.159674e-07
 -2.222013e-07
 -1.480246e-07
 -8.295554e-08
 -1.005136e-07
 -1.480680e-07
 -1.294968e-07
 -2.398805e-09
 1.401370e-07
 2.008418e-07
 1.805284e-07
 1.407181e-07
 2.159875e-07
 4.440851e-07
 7.094945e-07
 1.091948e-06
 -1.550564e-07
 -1.514081e-06
 -3.811202e-07
 -1.476564e-07
 0.000000e+00
 0.000000e+00
 -5.811024e-09
 -1.176774e-08
 -1.705642e-08
 -1.884517e-08
 -1.194582e-08
 8.519920e-09
 4.140341e-08
 7.887780e-08
 1.176849e-07
 1.762606e-07
 3.328549e-07
 9.538413e-07
 1.606438e-08
 -1.334170e-06
 -2.971158e-07
 -1.532346e-07
 -1.127680e-07
 -9.921790e-08
 -9.536815e-08
 -9.742912e-08
 -1.021123e-07
 -9.983987e-08
 -7.606669e-08
 -3.106678e-08
 6.772002e-09
 1.107207e-08
 -1.832975e-08
 -7.386873e-08
 -1.608592e-07
 -3.021817e-07
 -3.592084e-07
 -1.046607e-07
 1.012668e-07
 -1.789762e-08
 -2.276461e-07
 -2.965888e-07
 1.086556e-09
 2.905782e-07
 2.538383e-07
 8.364958e-08
 6.060342e-09
 2.794939e-07
 5.731970e-07
 5.913504e-07
 4.489526e-07
 3.187171e-08
 -3.226051e-07
 -2.855121e-07
 -1.280862e-07
 0.000000e+00
 0.000000e+00
 -5.334648e-09
 -1.259058e-08
 -2.244835e-08
 -3.191301e-08
 -3.047049e-08
 -2.158415e-09
 5.487378e-08
 1.160313e-07
 1.624346e-07
 2.087932e-07
 2.840586e-07
 3.124643e-07
 3.888357e-08
 -2.731653e-07
 -2.682768e-07
 -1.743235e-07
 -1.291627e-07
 -1.081279e-07
 -1.007523e-07
 -1.063800e-07
 -1.262683e-07
 -1.471687e-07
 -1.192448e-07
 -1.500407e-08
 7.744379e-08
 8.378894e-08
 3.820646e-08
 -2.387421e-08
 -1.116382e-07
 -3.041180e-07
 -1.392548e-06
 -9.635731e-08
 7.804504e-07
 7.048623e-08
 -2.817529e-07
 -1.416170e-06
 -7.731751e-08
 9.368347e-07
 3.628537e-07
 6.757232e-08
 -1.063419e-06
 2.286823e-07
 1.139452e-06
 4.922484e-07
 2.559528e-07
 4.787094e-08
 -1.063670e-07
 -1.341091e-07
 -7.845527e-08
 0.000000e+00
 0.000000e+00
 -2.761761e-09
 -1.027177e-08
 -2.689228e-08
 -5.427310e-08
 -7.821726e-08
 -4.787332e-08
 6.539180e-08
 1.752788e-07
 2.102861e-07
 2.070930e-07
 1.956498e-07
 1.449284e-07
 1.786910e-08
 -1.131911e-07
 -1.597716e-07
 -1.474352e-07
 -1.243771e-07
 -1.049798e-07
 -9.359351e-08
 -9.954097e-08
 -1.405632e-07
 -2.436595e-07
 -2.685828e-07
 1.695873e-08
 2.614323e-07
 2.039549e-07
 1.031953e-07
 4.384979e-08
 1.231234e-08
 5.592301e-09
 -3.816785e-08
 1.740836e-05
 -6.411316e-08
 -5.525761e-08
 -1.019523e-07
 -2.308521e-07
 1.721783e-05
 6.552386e-08
 3.640529e-07
 3.281286e-07
 2.159773e-07
 1.763384e-05
 1.542664e-07
 1.574481e-07
 9.173847e-08
 1.514471e-08
 -4.707615e-08
 -6.516633e-08
 -4.241144e-08
 0.000000e+00
 0.000000e+00
 4.594454e-09
 1.403202e-09
 -1.888116e-08
 -7.124780e-08
 -1.805805e-07
 -2.062363e-07
 8.359162e-08
 3.367157e-07
 2.909768e-07
 2.010488e-07
 1.412791e-07
 8.125358e-08
 5.399544e-09
 -6.725254e-08
 -1.105458e-07
 -1.228960e-07
 -1.152459e-07
 -9.490085e-08
 -7.043765e-08
 -5.961857e-08
 -9.273980e-08
 -2.492630e-07
 -1.312626e-06
 7.398879e-09
 9.192904e-07
 2.818714e-07
 1.230056e-07
 8.605300e-08
 1.166763e-07
 2.702653e-07
 9.048556e-07
 -4.856430e-09
 -1.311562e-06
 -2.061691e-07
 8.137218e-08
 6.254349e-07
 -1.306578e-06
 -1.259291e-06
 7.938176e-07
 5.013146e-07
 1.040319e-06
 9.982647e-08
 -1.234511e-06
 -1.870245e-07
 -5.018091e-08
 -3.178438e-08
 -3.950631e-08
 -3.992077e-08
 -2.492815e-08
 0.000000e+00
 0.000000e+00
 1.956332e-08
 2.934181e-08
 1.902141e-08
 -3.155821e-08
 -1.976959e-07
 -1.264317e-06
 5.584538e-08
 9.685444e-07
 3.292238e-07
 1.595230e-07
 9.032825e-08
 4.091630e-08
 -8.869088e-09
 -5.666697e-08
 -9.426199e-08
 -1.168942e-07
 -1.190255e-07
 -9.081173e-08
 -3.512047e-08
 1.951312e-08
 4.972697e-08
 6.776264e-08
 3.254124e-08
 1.748471e-05
 2.256624e-08
 5.377149e-08
 5.014432e-08
 7.347971e-08
 1.273624e-07
 2.266324e-07
 2.887718e-07
 5.914259e-08
 -1.934744e-07
 -1.023665e-07
 1.207472e-07
 2.636774e-07
 4.159590e-08