<VTKFile type="UnstructuredGrid"  version="0.1"   >
<UnstructuredGrid>  
<Piece  NumberOfPoints="     2601"  NumberOfCells="     5000">  
<Points>  
<DataArray  type="Float64"  NumberOfComponents="3"  format="ascii">  
 0.000000 0.000000 0.000000 
 0.020000 0.000000 0.000000 
 0.040000 0.000000 0.000000 
 0.060000 0.000000 0.000000 
 0.080000 0.000000 0.000000 
 0.100000 0.000000 0.000000 
 0.120000 0.000000 0.000000 
 0.140000 0.000000 0.000000 
 0.160000 0.000000 0.000000 
 0.180000 0.000000 0.000000 
 0.200000 0.000000 0.000000 
 0.220000 0.000000 0.000000 
 0.240000 0.000000 0.000000 
 0.260000 0.000000 0.000000 
 0.280000 0.000000 0.000000 
 0.300000 0.000000 0.000000 
 0.320000 0.000000 0.000000 
 0.340000 0.000000 0.000000 
 0.360000 0.000000 0.000000 
 0.380000 0.000000 0.000000 
 0.400000 0.000000 0.000000 
 0.420000 0.000000 0.000000 
 0.440000 0.000000 0.000000 
 0.460000 0.000000 0.000000 
 0.480000 0.000000 0.000000 
 0.500000 0.000000 0.000000 
 0.520000 0.000000 0.000000 
 0.540000 0.000000 0.000000 
 0.560000 0.000000 0.000000 
 0.580000 0.000000 0.000000 
 0.600000 0.000000 0.000000 
 0.620000 0.000000 0.000000 
 0.640000 0.000000 0.000000 
 0.660000 0.000000 0.000000 
 0.680000 0.000000 0.000000 
 0.700000 0.000000 0.000000 
 0.720000 0.000000 0.000000 
 0.740000 0.000000 0.000000 
 0.760000 0.000000 0.000000 
 0.780000 0.000000 0.000000 
 0.800000 0.000000 0.000000 
 0.820000 0.000000 0.000000 
 0.840000 0.000000 0.000000 
 0.860000 0.000000 0.000000 
 0.880000 0.000000 0.000000 
 0.900000 0.000000 0.000000 
 0.920000 0.000000 0.000000 
 0.940000 0.000000 0.000000 
 0.960000 0.000000 0.000000 
 0.980000 0.000000 0.000000 
 1.000000 0.000000 0.000000 
 0.000000 0.020000 0.000000 
 0.020000 0.020000 0.000000 
 0.040000 0.020000 0.000000 
 0.060000 0.020000 0.000000 
 0.080000 0.020000 0.000000 
 0.100000 0.020000 0.000000 
 0.120000 0.020000 0.000000 
 0.140000 0.020000 0.000000 
 0.160000 0.020000 0.000000 
 0.180000 0.020000 0.000000 
 0.200000 0.020000 0.000000 
 0.220000 0.020000 0.000000 
 0.240000 0.020000 0.000000 
 0.260000 0.020000 0.000000 
 0.280000 0.020000 0.000000 
 0.300000 0.020000 0.000000 
 0.320000 0.020000 0.000000 
 0.340000 0.020000 0.000000 
 0.360000 0.020000 0.000000 
 0.380000 0.020000 0.000000 
 0.400000 0.020000 0.000000 
 0.420000 0.020000 0.000000 
 0.440000 0.020000 0.000000 
 0.460000 0.020000 0.000000 
 0.480000 0.020000 0.000000 
 0.500000 0.020000 0.000000 
 0.520000 0.020000 0.000000 
 0.540000 0.020000 0.000000 
 0.560000 0.020000 0.000000 
 0.580000 0.020000 0.000000 
 0.600000 0.020000 0.000000 
 0.620000 0.020000 0.000000 
 0.640000 0.020000 0.000000 
 0.660000 0.020000 0.000000 
 0.680000 0.020000 0.000000 
 0.700000 0.020000 0.000000 
 0.720000 0.020000 0.000000 
 0.740000 0.020000 0.000000 
 0.760000 0.020000 0.000000 
 0.780000 0.020000 0.000000 
 0.800000 0.020000 0.000000 
 0.820000 0.020000 0.000000 
 0.840000 0.020000 0.000000 
 0.860000 0.020000 0.000000 
 0.880000 0.020000 0.000000 
 0.900000 0.020000 0.000000 
 0.920000 0.020000 0.000000 
 0.940000 0.020000 0.000000 
 0.960000 0.020000 0.000000 
 0.980000 0.020000 0.000000 
 1.000000 0.020000 0.000000 
 0.000000 0.040000 0.000000 
 0.020000 0.040000 0.000000 
 0.040000 0.040000 0.000000 
 0.060000 0.040000 0.000000 
 0.080000 0.040000 0.000000 
 0.100000 0.040000 0.000000 
 0.120000 0.040000 0.000000 
 0.140000 0.040000 0.000000 
 0.160000 0.040000 0.000000 
 0.180000 0.040000 0.000000 
 0.200000 0.040000 0.000000 
 0.220000 0.040000 0.000000 
 0.240000 0.040000 0.000000 
 0.260000 0.040000 0.000000 
 0.280000 0.040000 0.000000 
 0.300000 0.040000 0.000000 
 0.320000 0.040000 0.000000 
 0.340000 0.040000 0.000000 
 0.360000 0.040000 0.000000 
 0.380000 0.040000 0.000000 
 0.400000 0.040000 0.000000 
 0.420000 0.040000 0.000000 
 0.440000 0.040000 0.000000 
 0.460000 0.040000 0.000000 
 0.480000 0.040000 0.000000 
 0.500000 0.040000 0.000000 
 0.520000 0.040000 0.000000 
 0.540000 0.040000 0.000000 
 0.560000 0.040000 0.000000 
 0.580000 0.040000 0.000000 
 0.600000 0.040000 0.000000 
 0.620000 0.040000 0.000000 
 0.640000 0.040000 0.000000 
 0.660000 0.040000 0.000000 
 0.680000 0.040000 0.000000 
 0.700000 0.040000 0.000000 
 0.720000 0.040000 0.000000 
 0.740000 0.040000 0.000000 
 0.760000 0.040000 0.000000 
 0.780000 0.040000 0.000000 
 0.800000 0.040000 0.000000 
 0.820000 0.040000 0.000000 
 0.840000 0.040000 0.000000 
 0.860000 0.040000 0.000000 
 0.880000 0.040000 0.000000 
 0.900000 0.040000 0.000000 
 0.920000 0.040000 0.000000 
 0.940000 0.040000 0.000000 
 0.960000 0.040000 0.000000 
 0.980000 0.040000 0.000000 
 1.000000 0.040000 0.000000 
 0.000000 0.060000 0.000000 
 0.020000 0.060000 0.000000 
 0.040000 0.060000 0.000000 
 0.060000 0.060000 0.000000 
 0.080000 0.060000 0.000000 
 0.100000 0.060000 0.000000 
 0.120000 0.060000 0.000000 
 0.140000 0.060000 0.000000 
 0.160000 0.060000 0.000000 
 0.180000 0.060000 0.000000 
 0.200000 0.060000 0.000000 
 0.220000 0.060000 0.000000 
 0.240000 0.060000 0.000000 
 0.260000 0.060000 0.000000 
 0.280000 0.060000 0.000000 
 0.300000 0.060000 0.000000 
 0.320000 0.060000 0.000000 
 0.340000 0.060000 0.000000 
 0.360000 0.060000 0.000000 
 0.380000 0.060000 0.000000 
 0.400000 0.060000 0.000000 
 0.420000 0.060000 0.000000 
 0.440000 0.060000 0.000000 
 0.460000 0.060000 0.000000 
 0.480000 0.060000 0.000000 
 0.500000 0.060000 0.000000 
 0.520000 0.060000 0.000000 
 0.540000 0.060000 0.000000 
 0.560000 0.060000 0.000000 
 0.580000 0.060000 0.000000 
 0.600000 0.060000 0.000000 
 0.620000 0.060000 0.000000 
 0.640000 0.060000 0.000000 
 0.660000 0.060000 0.000000 
 0.680000 0.060000 0.000000 
 0.700000 0.060000 0.000000 
 0.720000 0.060000 0.000000 
 0.740000 0.060000 0.000000 
 0.760000 0.060000 0.000000 
 0.780000 0.060000 0.000000 
 0.800000 0.060000 0.000000 
 0.820000 0.060000 0.000000 
 0.840000 0.060000 0.000000 
 0.860000 0.060000 0.000000 
 0.880000 0.060000 0.000000 
 0.900000 0.060000 0.000000 
 0.920000 0.060000 0.000000 
 0.940000 0.060000 0.000000 
 0.960000 0.060000 0.000000 
 0.980000 0.060000 0.000000 
 1.000000 0.060000 0.000000 
 0.000000 0.080000 0.000000 
 0.020000 0.080000 0.000000 
 0.040000 0.080000 0.000000 
 0.060000 0.080000 0.000000 
 0.080000 0.080000 0.000000 
 0.100000 0.080000 0.000000 
 0.120000 0.080000 0.000000 
 0.140000 0.080000 0.000000 
 0.160000 0.080000 0.000000 
 0.180000 0.080000 0.000000 
 0.200000 0.080000 0.000000 
 0.220000 0.080000 0.000000 
 0.240000 0.080000 0.000000 
 0.260000 0.080000 0.000000 
 0.280000 0.080000 0.000000 
 0.300000 0.080000 0.000000 
 0.320000 0.080000 0.000000 
 0.340000 0.080000 0.000000 
 0.360000 0.080000 0.000000 
 0.380000 0.080000 0.000000 
 0.400000 0.080000 0.000000 
 0.420000 0.080000 0.000000 
 0.440000 0.080000 0.000000 
 0.460000 0.080000 0.000000 
 0.480000 0.080000 0.000000 
 0.500000 0.080000 0.000000 
 0.520000 0.080000 0.000000 
 0.540000 0.080000 0.000000 
 0.560000 0.080000 0.000000 
 0.580000 0.080000 0.000000 
 0.600000 0.080000 0.000000 
 0.620000 0.080000 0.000000 
 0.640000 0.080000 0.000000 
 0.660000 0.080000 0.000000 
 0.680000 0.080000 0.000000 
 0.700000 0.080000 0.000000 
 0.720000 0.080000 0.000000 
 0.740000 0.080000 0.000000 
 0.760000 0.080000 0.000000 
 0.780000 0.080000 0.000000 
 0.800000 0.080000 0.000000 
 0.820000 0.080000 0.000000 
 0.840000 0.080000 0.000000 
 0.860000 0.080000 0.000000 
 0.880000 0.080000 0.000000 
 0.900000 0.080000 0.000000 
 0.920000 0.080000 0.000000 
 0.940000 0.080000 0.000000 
 0.960000 0.080000 0.000000 
 0.980000 0.080000 0.000000 
 1.000000 0.080000 0.000000 
 0.000000 0.100000 0.000000 
 0.020000 0.100000 0.000000 
 0.040000 0.100000 0.000000 
 0.060000 0.100000 0.000000 
 0.080000 0.100000 0.000000 
 0.100000 0.100000 0.000000 
 0.120000 0.100000 0.000000 
 0.140000 0.100000 0.000000 
 0.160000 0.100000 0.000000 
 0.180000 0.100000 0.000000 
 0.200000 0.100000 0.000000 
 0.220000 0.100000 0.000000 
 0.240000 0.100000 0.000000 
 0.260000 0.100000 0.000000 
 0.280000 0.100000 0.000000 
 0.300000 0.100000 0.000000 
 0.320000 0.100000 0.000000 
 0.340000 0.100000 0.000000 
 0.360000 0.100000 0.000000 
 0.380000 0.100000 0.000000 
 0.400000 0.100000 0.000000 
 0.420000 0.100000 0.000000 
 0.440000 0.100000 0.000000 
 0.460000 0.100000 0.000000 
 0.480000 0.100000 0.000000 
 0.500000 0.100000 0.000000 
 0.520000 0.100000 0.000000 
 0.540000 0.100000 0.000000 
 0.560000 0.100000 0.000000 
 0.580000 0.100000 0.000000 
 0.600000 0.100000 0.000000 
 0.620000 0.100000 0.000000 
 0.640000 0.100000 0.000000 
 0.660000 0.100000 0.000000 
 0.680000 0.100000 0.000000 
 0.700000 0.100000 0.000000 
 0.720000 0.100000 0.000000 
 0.740000 0.100000 0.000000 
 0.760000 0.100000 0.000000 
 0.780000 0.100000 0.000000 
 0.800000 0.100000 0.000000 
 0.820000 0.100000 0.000000 
 0.840000 0.100000 0.000000 
 0.860000 0.100000 0.000000 
 0.880000 0.100000 0.000000 
 0.900000 0.100000 0.000000 
 0.920000 0.100000 0.000000 
 0.940000 0.100000 0.000000 
 0.960000 0.100000 0.000000 
 0.980000 0.100000 0.000000 
 1.000000 0.100000 0.000000 
 0.000000 0.120000 0.000000 
 0.020000 0.120000 0.000000 
 0.040000 0.120000 0.000000 
 0.060000 0.120000 0.000000 
 0.080000 0.120000 0.000000 
 0.100000 0.120000 0.000000 
 0.120000 0.120000 0.000000 
 0.140000 0.120000 0.000000 
 0.160000 0.120000 0.000000 
 0.180000 0.120000 0.000000 
 0.200000 0.120000 0.000000 
 0.220000 0.120000 0.000000 
 0.240000 0.120000 0.000000 
 0.260000 0.120000 0.000000 
 0.280000 0.120000 0.000000 
 0.300000 0.120000 0.000000 
 0.320000 0.120000 0.000000 
 0.340000 0.120000 0.000000 
 0.360000 0.120000 0.000000 
 0.380000 0.120000 0.000000 
 0.400000 0.120000 0.000000 
 0.420000 0.120000 0.000000 
 0.440000 0.120000 0.000000 
 0.460000 0.120000 0.000000 
 0.480000 0.120000 0.000000 
 0.500000 0.120000 0.000000 
 0.520000 0.120000 0.000000 
 0.540000 0.120000 0.000000 
 0.560000 0.120000 0.000000 
 0.580000 0.120000 0.000000 
 0.600000 0.120000 0.000000 
[...]
<PointData  Scalars="U"> 
<DataArray  type="Float64"  Name="U"  format="ascii"> 
 0.000000e+00
 0.000000e+00
 0.000000e+00
 0.000000e+00
 0.000000e+00
 0.000000e+00
 0.000000e+00
 0.000000e+00
 0.000000e+00
 0.000000e+00
 0.000000e+00
 0.000000e+00
 0.000000e+00
 0.000000e+00
 0.000000e+00
 0.000000e+00
 0.000000e+00
 0.000000e+00
 0.000000e+00
 0.000000e+00
 0.000000e+00
 0.000000e+00
 0.000000e+00
 0.000000e+00
 0.000000e+00
 0.000000e+00
 0.000000e+00
 0.000000e+00
 0.000000e+00
 0.000000e+00
 0.000000e+00
 0.000000e+00
 0.000000e+00
 0.000000e+00
 0.000000e+00
 0.000000e+00
 0.000000e+00
 0.000000e+00
 0.000000e+00
 0.000000e+00
 0.000000e+00
 0.000000e+00
 0.000000e+00
 0.000000e+00
 0.000000e+00
 0.000000e+00
 0.000000e+00
 0.000000e+00
 0.000000e+00
 0.000000e+00
 0.000000e+00
 0.000000e+00
 1.304165e-09
 2.832552e-09
 4.816749e-09
 7.499813e-09
 1.111579e-08
 1.574858e-08
 2.067465e-08
 2.152769e-08
 -2.150742e-09
 -1.448493e-07
 -1.251251e-06
 -8.108022e-08
 6.227489e-07
 -8.612276e-08
 9.586901e-09
 1.756483e-07
 8.009751e-08
 -6.272921e-08
 -2.310975e-07
 -3.454152e-07
 -2.288754e-07
 -9.220203e-08
 5.118150e-08
 1.235000e-07
 -5.504972e-08
 -2.827941e-07
 -5.899887e-07
 -1.342932e-06
 -3.429550e-06
 1.351765e-05
 -1.771893e-06
 -1.402381e-06
 -2.060778e-06
 -4.154042e-06
 -5.108007e-06
 -1.101825e-06
 3.028139e-07
 -1.824941e-07
 -2.471096e-07
 -2.389827e-07
 -1.899275e-07
 -8.313431e-08
 7.292551e-09
 2.253627e-08
 3.334303e-09
 -1.182112e-08
 -1.620420e-08
 -1.341277e-08
 -6.775513e-09
 0.000000e+00
 0.000000e+00
 2.385363e-09
 5.211636e-09
 8.935485e-09
 1.405194e-08
 2.112283e-08
 3.077904e-08
 4.357091e-08
 5.932524e-08
 7.558623e-08
 8.860148e-08
 1.996126e-08
 1.737692e-05
 -3.019150e-07
 -1.378805e-06
 -1.013284e-07
 7.844215e-07
 1.178699e-07
 -1.056271e-07
 -3.459460e-07
 -1.499961e-06
 -3.892887e-07
 -6.032576e-07
 2.387550e-09
 6.588123e-07
 -1.521645e-07
 -5.139723e-07
 -8.676747e-07
 -1.312196e-06
 -1.330706e-06
 -2.321505e-06
 -3.224532e-06
 -2.012635e-06
 -2.275194e-06
 -3.709797e-06
 -2.291310e-06
 1.673836e-05
 -8.112080e-07
 -6.333063e-07
 -5.282652e-07
 -5.099177e-07
 -4.635696e-07
 -1.458868e-07
 1.149708e-07
 7.424676e-08
 -3.739773e-09
 -3.546220e-08
 -3.935434e-08
 -3.026892e-08
 -1.590661e-08
 0.000000e+00
 0.000000e+00
 3.028062e-09
 6.699260e-09
 1.167310e-08
 1.866438e-08
 2.854317e-08
 4.258401e-08
 6.314192e-08
 9.587453e-08
 1.586015e-07
 3.216615e-07
 9.440574e-07
 3.504166e-09
 -1.338986e-06
 -3.354537e-07
 1.726315e-05
 -1.607315e-07
 -1.235737e-07
 -1.360633e-07
 -1.304926e-07
 -1.726660e-07
 1.727117e-05
 -2.651452e-07
 1.715169e-05
 -4.187926e-07
 -5.246362e-07
 -7.258184e-07
 -9.959652e-07
 -1.353460e-06
 -1.649321e-06
 -1.751751e-06
 -1.755311e-06
 -1.742105e-06
 -1.754536e-06
 -1.721038e-06
 1.649372e-05
 -1.506390e-06
 -2.411688e-06
 -1.084842e-06
 -7.162396e-07
 -6.326931e-07
 -1.591035e-06
 -2.361799e-07
 6.942519e-07
 7.657662e-08
 -6.131932e-08
 -8.528541e-08
 -7.425212e-08
 -5.181768e-08
 -2.618099e-08
 0.000000e+00
 0.000000e+00
 3.029794e-09
 6.891945e-09
 1.241560e-08
 2.044752e-08
 3.195080e-08
 4.829678e-08
 7.199200e-08
 1.083516e-07
 1.686603e-07
 2.686219e-07
 3.294939e-07
 1.151846e-07
 -3.283741e-08
 6.071188e-07
 -2.162501e-07
 -1.494610e-06
 -3.991535e-07
 -1.766789e-07
 5.145244e-08
 7.519726e-07
 -6.978820e-09
 -7.222819e-07
 -6.316778e-07
 -1.879797e-06
 -8.853608e-07
 -8.625557e-07
 -1.022651e-06
 -1.352163e-06
 -2.609598e-06
 -1.485153e-06
 -6.916936e-07
 -1.313269e-06
 -1.307677e-06
 -7.042919e-07
 -1.513623e-06
 -2.653816e-06
 -1.511287e-06
 -1.196762e-06
 -6.807582e-07
 -2.785732e-07
 -2.648726e-07
 1.716961e-05
 -2.845370e-07
 -2.295827e-07
 -2.055482e-07
 -1.636011e-07
 -1.185272e-07
 -7.577172e-08
 -3.667050e-08
 0.000000e+00
 0.000000e+00
 2.198103e-09
 5.424173e-09
 1.066434e-08
 1.881650e-08
 3.068075e-08
 4.707823e-08
 6.914952e-08
 9.854401e-08
 1.358555e-07
 1.714039e-07
 1.690456e-07
 1.056704e-07
 7.291791e-08
 7.792330e-08
 -1.615720e-07
 -4.297688e-07
 -3.799229e-07
 -2.240320e-07
 -6.840223e-08
 5.621452e-08
 -7.824879e-08
 -3.151123e-07
 -5.812680e-07
 -8.412331e-07
 -8.668007e-07
 -8.528809e-07
 -9.168677e-07
 -1.010655e-06
 -1.162308e-06
 1.618634e-05
 -1.335970e-06
 -1.300878e-06
 -1.250148e-06
 -1.300543e-06
 -2.536676e-06
 -1.473549e-06
 -6.022874e-07
 -2.036081e-06
 -6.198189e-07
 5.506919e-07
 6.328238e-07
 -3.772230e-07
 -1.692677e-06
 -5.869699e-07
 -3.633281e-07
 -2.439611e-07
 -1.598342e-07
 -9.564276e-08
 -4.453466e-08
 0.000000e+00
 0.000000e+00
 3.318397e-10
 1.926882e-09
 5.981154e-09
 1.347075e-08
 2.492906e-08
 4.030153e-08
 5.897845e-08
 7.966970e-08
 9.914418e-08
 1.094570e-07
 9.885952e-08
 6.593743e-08
 2.554935e-08
 -3.510501e-08
 -1.514346e-07
 -2.640555e-07
 -2.945631e-07
 -2.730438e-07
 -2.461856e-07
 -2.200918e-07
 -2.149166e-07
 -2.847355e-07
 -4.492031e-07
 -6.229730e-07
 -7.217337e-07
 -7.658555e-07
 -7.795546e-07
 -6.938152e-07
 -1.340097e-07
 -1.110009e-06
 -2.464131e-06
 -1.396186e-06
 -1.205099e-06
 -1.132432e-06
 -1.156939e-06
 1.636896e-05
 -9.271947e-07
 -7.716866e-07
 1.682652e-05
 -4.574959e-07
 -3.081233e-07
 -5.122862e-07
 -7.434567e-07
 -6.458734e-07
 -4.466766e-07
 -2.948814e-07
 -1.818907e-07
 -1.023433e-07
 -4.583131e-08
 0.000000e+00
 0.000000e+00
 -2.805938e-09
 -4.063563e-09
 -2.213283e-09
 4.051219e-09
 1.517140e-08
 3.013761e-08
 4.653543e-08
 6.118449e-08
 7.044908e-08
 7.002623e-08
 5.605405e-08
 2.811376e-08
 -1.204104e-08
 -6.755755e-08
 -1.393269e-07
 -2.090519e-07
 -2.610144e-07
 -3.162630e-07
 -4.273605e-07
 -4.840387e-07
 -2.721201e-07
 -1.346099e-07
 -3.077047e-07
 -5.063823e-07
 -6.294771e-07
 -6.937518e-07
 -7.122799e-07
 -6.785309e-07
 -6.738494e-07
 -9.507540e-07
 -1.244505e-06
 -1.203987e-06
 -1.063391e-06
 -9.279306e-07
 -2.697120e-07
 -8.239972e-07
 -1.685339e-06
 5.113181e-08
 -6.837734e-07
 -1.904340e-06
 -8.047943e-07
 -6.979173e-07
 -7.075278e-07
 -6.402312e-07
 -4.845966e-07
 -3.076522e-07
 -1.691458e-07
 -8.573965e-08
 -3.693301e-08
 0.000000e+00
 0.000000e+00
 -7.481668e-09
 -1.319208e-08
 -1.496489e-08
 -1.048688e-08
 1.311091e-09
 1.842673e-08
 3.579328e-08
 4.793533e-08
 5.141575e-08
 4.483701e-08
 2.791675e-08
 1.184436e-09
 -3.458988e-08
 -7.890039e-08
 -1.291825e-07
 -1.795718e-07
 -2.299838e-07
 -3.041689e-07
 -4.921779e-07
 -1.595245e-06
 -3.348879e-07
 4.981497e-07
 -2.275491e-07
 -4.735582e-07
 -5.943087e-07
 -6.624491e-07
 -6.991931e-07
 -7.193566e-07
 -7.606553e-07
 -8.580077e-07
 -9.441330e-07
 -9.405314e-07
 -8.879253e-07
 -8.989126e-07
 -1.850856e-06
 -6.929654e-07
 7.125942e-08
 -4.292274e-07
 -6.678366e-07
 -9.056090e-07
 -8.639885e-07
 -7.896863e-07
 -7.855999e-07
 -7.338896e-07
 -5.413418e-07
 -2.736793e-07
 -9.392373e-08
 -3.518684e-08
 -1.871158e-08
 0.000000e+00
 0.000000e+00
 -1.384535e-08
 -2.619630e-08
 -3.415144e-08
 -3.291446e-08
 -1.847610e-08
 6.406808e-09
 3.070872e-08
 4.371184e-08
 4.259197e-08
 3.013881e-08
 9.654959e-09
 -1.686554e-08
 -4.827963e-08
 -8.334179e-08
 -1.196735e-07
 -1.538076e-07
 -1.833172e-07
 -2.082655e-07
 -2.249247e-07
 -2.948586e-07
 1.711001e-05
 -4.141109e-07
 -4.558966e-07
 -5.398402e-07
 -6.057638e-07
 -6.612065e-07
 -7.076206e-07
 -7.435479e-07
 -7.656741e-07
 -7.727211e-07
 -7.630723e-07
 -7.307348e-07
 -6.725379e-07
 -5.943606e-07
 -5.949864e-07
 1.682214e-05
 -6.834388e-07
 -6.601985e-07
 -7.094213e-07
 -7.645350e-07
 -7.780581e-07
 -8.003882e-07
 -9.117697e-07
 -1.001968e-06
 -6.973347e-07
 -1.189856e-07
 1.251050e-07
 4.553069e-08
 -1.138581e-08
 0.000000e+00
 0.000000e+00
 -2.145366e-08
 -4.318849e-08
 -6.251625e-08
 -6.979373e-08
 -5.048648e-08
 -4.935960e-09
 3.862468e-08
 5.460186e-08
 4.505164e-08
 2.319293e-08
 -2.715347e-09
 -3.001392e-08
 -5.810569e-08
 -8.625112e-08
 -1.125393e-07
 -1.332614e-07
 -1.411509e-07
 -1.165110e-07
 1.369002e-08
 6.105464e-07
 -3.520240e-07
 -1.729640e-06
 -7.249336e-07
 -6.204811e-07
 -6.272139e-07
 -6.685107e-07
 -7.260379e-07
 -7.821545e-07
 -7.858486e-07
 -7.028722e-07
 -6.052798e-07
 -5.485606e-07
 -4.785491e-07
 -2.964733e-07
 3.484256e-07
 -5.794224e-07
 -1.922855e-06
 -8.751935e-07
 -7.287472e-07
 -6.931268e-07
 -6.852676e-07
 -7.160231e-07
 -8.907600e-07
 -2.080932e-06
 -1.792616e-06
 4.614526e-07
 7.526629e-07
 8.375577e-09
 -7.704535e-08
 0.000000e+00
 0.000000e+00
 -2.835079e-08
 -6.133833e-08
 -1.014040e-07
 -1.357254e-07
 -1.152726e-07
 -1.358303e-08
 8.047284e-08
 9.256815e-08
 5.843851e-08
 1.931284e-08
 -1.397856e-08
 -4.231472e-08
 -6.767001e-08
 -9.073300e-08
 -1.105200e-07
 -1.240804e-07
 -1.254036e-07
 -1.028914e-07
 -4.210439e-08
 -2.820908e-08
 -3.197849e-07
 -6.545117e-07
 -6.781450e-07
 -6.202248e-07
 -6.209670e-07
 -6.601158e-07
 -7.375662e-07
 -8.724793e-07
 -9.205739e-07
 -6.431245e-07
 -3.802265e-07
 -3.800898e-07
 -3.767611e-07
 -2.884655e-07
 -2.333817e-07
 -4.870770e-07
 -7.858236e-07
 -7.697910e-07
 -6.654829e-07
 -6.075223e-07
 -5.652846e-07
 -5.229351e-07
 -4.679461e-07
 -4.498933e-07
 1.699937e-05
 1.698831e-05
 -5.155547e-07
 -5.124392e-07
 -2.654894e-07
 0.000000e+00
 0.000000e+00
 -3.046002e-08
 -7.081930e-08
 -1.372864e-07
 -2.568123e-07
 -2.910895e-07
 -1.037166e-08
 2.317200e-07
 1.728434e-07
 7.054017e-08
 8.240736e-09
 -3.019419e-08
 -5.734522e-08
 -7.924828e-08
 -9.818331e-08
 -1.142687e-07
 -1.262190e-07
 -1.320329e-07
 -1.314586e-07
 -1.364238e-07
 -1.893276e-07
 -3.267415e-07
 -4.746652e-07
 -5.442606e-07
 -5.623908e-07
 -5.801534e-07
 -6.171251e-07
 -6.922350e-07
 -8.800614e-07
 -1.964040e-06
 -6.510861e-07
 2.783803e-07
 -3.015564e-07
 -3.679283e-07
 -3.285016e-07
 -3.307867e-07
 -4.316224e-07
 -5.486560e-07
 -5.833822e-07
 -5.560333e-07
 -5.095796e-07
 -4.465031e-07
 -3.380509e-07
 -8.695173e-08
 7.449111e-07
 4.908588e-07
 -1.751371e-06
 -2.127031e-06
 -1.935548e-06
 -4.645025e-07
 0.000000e+00
 0.000000e+00
 -2.365913e-08
 -5.654521e-08
 -1.204521e-07
 -2.941689e-07
 -1.366036e-06
 -5.100784e-08
 8.559109e-07
 2.109999e-07
 3.873379e-08
 -2.510332e-08
 -5.660104e-08
 -7.704231e-08
 -9.345677e-08
 -1.082543e-07
 -1.220024e-07
 -1.346082e-07
 -1.464931e-07
 -1.607802e-07
 -1.866577e-07
 -2.384015e-07
 -3.189021e-07
 -4.029880e-07
 -4.624649e-07
 -4.968239e-07
 -5.203879e-07
 -5.424202e-07
 -5.638831e-07
 -5.751416e-07
 -6.302850e-07
 1.680463e-05
 -6.606762e-07
 -5.729608e-07
 -4.430700e-07
 -3.174932e-07
 -2.981246e-07
 -3.561770e-07
 -4.243316e-07
 -4.594350e-07
 -4.563457e-07
 -4.247553e-07
 -3.652234e-07
 -2.622942e-07
 -8.782869e-08
 9.174622e-08
 -6.174352e-08
 -5.376395e-07
 -7.074661e-07
 -5.057436e-07
 1.721640e-05
 0.000000e+00
 0.000000e+00
 -9.166165e-09
 -1.767765e-08
 -2.355880e-08
 -1.749584e-08
 -5.492392e-08
 1.739538e-05
 -7.207421e-08
 -5.152043e-08
 -7.405934e-08
 -8.439750e-08
 -9.225694e-08
 -1.001317e-07
 -1.090080e-07
 -1.192637e-07
 -1.309359e-07
 -1.441127e-07
 -1.596181e-07
 -1.799145e-07
 -2.094342e-07
 -2.522944e-07
 -3.067033e-07
 -3.624179e-07
 -4.082543e-07
 -4.405176e-07
 -4.607647e-07
 -4.670763e-07
 -4.413619e-07
 -3.087645e-07
 2.934473e-07
 -6.680274e-07
 -2.074930e-06
 -9.999879e-07
 -5.069085e-07
 -1.701912e-07
 -1.846902e-07
 -2.755889e-07
 -3.407376e-07
 -3.760167e-07
 -3.829673e-07
 -3.651727e-07
 -3.243172e-07
 -2.601857e-07
 -1.829565e-07
 -1.414235e-07
 -2.016878e-07
 -2.934311e-07
 -1.588845e-07
 6.482218e-07
 8.243243e-08
 0.000000e+00
 0.000000e+00
 4.818077e-09
 1.929670e-08
 6.563407e-08
 2.202076e-07
 8.473803e-07
 -7.710052e-08
 -1.409170e-06
 -3.534557e-07
 -1.948588e-07
 -1.454558e-07
 -1.277224e-07
 -1.221268e-07
 -1.231177e-07
 -1.288567e-07
 -1.384786e-07
 -1.515692e-07
 -1.683537e-07
 -1.899082e-07
 -2.178222e-07
 -2.528382e-07
 -2.929980e-07
 -3.333878e-07
 -3.686586e-07
 -3.956505e-07
 -4.128670e-07
 -4.170036e-07
 -3.981854e-07
 -3.410347e-07
 -3.265736e-07
 -6.182362e-07
 -1.029314e-06
 -2.013352e-06
 -5.274255e-07
 4.950012e-07
 -7.884095e-08
 -2.241529e-07
 -2.874490e-07
 -3.214417e-07
 -3.338818e-07
 -3.280468e-07
 -3.076556e-07
 -2.782985e-07
 -2.515398e-07
 -2.463740e-07
 -2.702686e-07
 -2.740224e-07
 -1.402077e-07
 1.112487e-07
 1.461598e-07
 0.000000e+00
 0.000000e+00
 1.070157e-08
 3.071078e-08
 7.401634e-08
 1.572969e-07
 1.973562e-07
 -6.306959e-08
 -3.611292e-07
 -3.424898e-07
 -2.363623e-07
 -1.814354e-07
 -1.527809e-07
 -1.380027e-07
 -1.325914e-07
 -1.346248e-07
 -1.426585e-07
 -1.554888e-07
 -1.724374e-07
 -1.934258e-07
 -2.186108e-07
 -2.476435e-07
 -2.789837e-07
 -3.099528e-07
 -3.377055e-07
 -3.602918e-07
 -3.769459e-07
 -3.879963e-07
 -3.964998e-07
 -4.162716e-07
 -4.770997e-07
 -5.667149e-07
 -5.769549e-07
 -5.509864e-07
 1.698928e-05
 -3.500989e-07
 -2.247652e-07
 -2.265115e-07
 -2.593038e-07
 -2.883198e-07
 -3.031562e-07
 -3.056779e-07
 -3.009440e-07
 -2.956494e-07
 -2.976308e-07
 -3.124980e-07
 -3.422856e-07
 -4.005407e-07
 -3.597962e-07
 -3.258741e-08
 1.748761e-07
 0.000000e+00
 0.000000e+00
 8.083069e-09
 2.028699e-08
 3.847393e-08
 5.207289e-08
 1.983729e-08
 -9.383479e-08
 -2.139394e-07
 -2.501844e-07
 -2.273009e-07
 -1.938114e-07
 -1.651837e-07
 -1.448464e-07
 -1.346486e-07
 -1.344220e-07
 -1.421376e-07
 -1.554034e-07
 -1.725326e-07
 -1.926630e-07
 -2.153300e-07
 -2.399199e-07
 -2.653096e-07
 -2.899119e-07
 -3.121338e-07
 -3.310115e-07
 -3.469221e-07
 -3.629429e-07
 -3.883832e-07
 -4.456676e-07
 -5.710832e-07
 -6.144829e-07
 -2.602333e-07
 5.026326e-07
 -4.758494e-07
 -1.581225e-06
 -2.996977e-07
 -1.976647e-07
 -2.406950e-07
 -2.709162e-07
 -2.850977e-07
 -2.908103e-07
 -2.950939e-07
 -3.054170e-07
 -3.295376e-07
 -3.656267e-07
 -3.909463e-07
 -4.626741e-07
 -1.454279e-06
 -1.266840e-07
 7.646668e-07
 0.000000e+00
 0.000000e+00
 1.148497e-09
 2.402394e-09
 1.192644e-09
 -1.120685e-08
 -4.871247e-08
 -1.138020e-07
 -1.803157e-07
 -2.175699e-07
 -2.206802e-07
 -2.003709e-07
 -1.692402e-07
 -1.411492e-07
 -1.263796e-07
 -1.262381e-07
 -1.362145e-07
 -1.516066e-07
 -1.696954e-07
 -1.893334e-07
 -2.100289e-07
 -2.313063e-07
 -2.524175e-07
 -2.723576e-07
 -2.901167e-07
 -3.050917e-07
 -3.177052e-07
 -3.306395e-07
 -3.519422e-07
 -4.045472e-07
 -5.666692e-07
 -1.618453e-06
 -2.696647e-07
 5.320350e-07
 -1.403206e-06
 -5.112038e-07
 3.949267e-07
 -1.378937e-07
 -2.449613e-07
 -2.697909e-07
 -2.752899e-07
 -2.774740e-07
 -2.834422e-07
 -3.006232e-07
 -3.427059e-07
 -4.364604e-07
 -4.521421e-07
 -1.785125e-07
 -6.881156e-08
 1.726459e-05
 -1.161928e-07
 0.000000e+00
 0.000000e+00
 -6.289122e-09
 -1.410241e-08
 -2.632286e-08
 -4.779103e-08
 -8.317351e-08
 -1.313163e-07
 -1.820469e-07
 -2.215462e-07
 -2.372041e-07
 -2.182778e-07
 -1.696925e-07
 -1.222826e-07
 -1.024637e-07
 -1.080420e-07
 -1.252785e-07
 -1.453805e-07
 -1.654079e-07
 -1.849391e-07
 -2.040921e-07
 -2.228093e-07
 -2.406917e-07
 -2.570481e-07
 -2.710407e-07
 -2.818672e-07
 -2.889346e-07
 -2.919313e-07
 -2.904633e-07
 -2.821705e-07
 -2.552159e-07
 -2.605334e-07
 1.722955e-05
 -2.191616e-07
 -2.951667e-07
 1.706771e-05
 -3.995387e-07
 -3.302892e-07
 -3.059875e-07
 -2.828872e-07
 -2.678194e-07
 -2.604568e-07
 -2.614728e-07
 -2.735038e-07
 -3.060838e-07
 -4.187512e-07
 -1.385737e-06
 1.041673e-07
 1.511888e-06
 -1.132469e-06
 -1.420437e-06
 0.000000e+00
 0.000000e+00
 -1.244181e-08
 -2.660196e-08
 -4.470138e-08
 -6.944204e-08
 -1.030185e-07
 -1.456662e-07
 -1.955250e-07
 -2.490877e-07
 -2.907695e-07
 -2.719585e-07
 -1.679608e-07
 -6.932650e-08
 -5.154339e-08
 -7.956934e-08
 -1.125050e-07
 -1.395875e-07
 -1.616725e-07
 -1.808808e-07
 -1.985289e-07
 -2.150962e-07
 -2.304663e-07
 -2.441083e-07
 -2.551676e-07
 -2.624580e-07
 -2.642547e-07
 -2.574686e-07
 -2.346992e-07
 -1.736386e-07
 5.361411e-09
 6.750338e-07
 -1.700100e-07
 -1.320201e-06
 3.747909e-07
 -3.845167e-07
 -1.650517e-06
 -5.511679e-07
 -3.602149e-07
 -2.874878e-07
 -2.529360e-07
 -2.353550e-07
 -2.289823e-07
 -2.304646e-07
 -2.203675e-07
 -1.328136e-07
 1.790327e-08
 1.769501e-05
 3.491486e-07
 1.151928e-07
 1.730153e-05
 0.000000e+00
 0.000000e+00
 -1.697397e-08
 -3.527354e-08
 -5.637663e-08
 -8.188668e-08
 -1.133776e-07
 -1.527376e-07
 -2.043370e-07
 -2.803477e-07
 -4.054116e-07
 -4.405718e-07
 -1.565427e-07
 9.199650e-08
 4.133006e-08
 -5.242201e-08
 -1.069248e-07
 -1.388159e-07
 -1.606425e-07
 -1.782403e-07
 -1.939500e-07
 -2.085135e-07
 -2.219175e-07
 -2.337005e-07
 -2.429869e-07
 -2.483608e-07
 -2.475970e-07
 -2.371025e-07
 -2.104269e-07
 -1.547896e-07
 -5.147440e-08
 2.590195e-08
 -1.583940e-07
 -3.170169e-07
 -1.877450e-07
 -2.852011e-07
 -5.017007e-07
 -4.481996e-07
 -3.259146e-07
 -2.606902e-07
 -2.231212e-07
 -1.995533e-07
 -1.869728e-07
 -1.890716e-07
 -2.070611e-07
 -2.033156e-08
 9.754643e-07
 4.186326e-07
 -7.608893e-07
 8.478481e-07
 1.757232e-07
 0.000000e+00
 0.000000e+00
 -2.021180e-08
 -4.116888e-08
 -6.363003e-08
 -8.835325e-08
 -1.161857e-07
 -1.487764e-07
 -1.913948e-07
 -2.631897e-07
 -4.411599e-07
 -1.512600e-06
 -1.921615e-07
 7.244880e-07
 9.180056e-08
 -6.831757e-08
 -1.222658e-07
 -1.469867e-07
 -1.633079e-07
 -1.772493e-07
 -1.904053e-07
 -2.030223e-07
 -2.149251e-07
 -2.257024e-07
 -2.345897e-07
 -2.401948e-07
 -2.402572e-07
 -2.319172e-07
 -2.132007e-07
 -1.863448e-07
 -1.657153e-07
 -1.875724e-07
 -2.619691e-07
 -2.760975e-07
 -1.800672e-07
 -1.441079e-07
 -2.092802e-07
 -2.480974e-07
 -2.364568e-07
 -2.092938e-07
 -1.809265e-07
 -1.538626e-07
 -1.309748e-07
 -1.254457e-07
 -2.013305e-07
 -1.128093e-06
 3.005120e-07
 1.041654e-06
 2.334770e-07
 2.006024e-07
 1.502878e-07
 0.000000e+00
 0.000000e+00
 -2.270807e-08
 -4.555876e-08
 -6.862235e-08
 -9.179725e-08
 -1.146900e-07
 -1.365026e-07
 -1.558411e-07
 -1.697302e-07
 -1.676748e-07
 -2.037107e-07
 1.725471e-05
 -1.978387e-07
 -1.582601e-07
 -1.626859e-07
 -1.602040e-07
 -1.616596e-07
 -1.677656e-07
 -1.768669e-07
 -1.873462e-07
 -1.982135e-07
 -2.090035e-07
 -2.194906e-07
 -2.293172e-07
 -2.374361e-07
 -2.414203e-07
 -2.377265e-07
 -2.257532e-07
 -2.166273e-07
 -2.379092e-07
 -3.155873e-07
 -4.341914e-07
 -4.076592e-07
 -7.477017e-08
 1.394147e-07
 2.259357e-08
 -1.063682e-07
 -1.557074e-07
 -1.578249e-07
 -1.375391e-07
 -1.051951e-07
 -6.302001e-08
 -8.471337e-09
 6.753269e-08
 9.686722e-08
 1.756599e-05
 2.832657e-08
 -3.794333e-08
 -6.562987e-08
 -2.877472e-08
 0.000000e+00
 0.000000e+00
 -2.505060e-08
 -4.970786e-08
 -7.345418e-08
 -9.545613e-08
 -1.141881e-07
 -1.265197e-07
 -1.249746e-07
 -8.792772e-08
 6.145830e-08
 6.894580e-07
 -2.245964e-07
 -1.533885e-06
 -4.467021e-07
 -2.591171e-07
 -1.929559e-07
 -1.713892e-07
 -1.692804e-07
 -1.752275e-07
 -1.839896e-07
 -1.935233e-07
 -2.033683e-07
 -2.138324e-07
 -2.255076e-07
 -2.385185e-07
 -2.505646e-07
 -2.538382e-07
 -2.387915e-07
 -2.175791e-07
 -2.444948e-07
 -3.969888e-07
 -6.129195e-07
 -1.430628e-06
 9.785345e-08
 9.239303e-07
 1.692040e-07
 -5.173466e-08
 -1.190482e-07
 -1.262295e-07
 -1.049865e-07
 -6.566479e-08
 -6.668172e-09
 8.981051e-08
 2.940368e-07
 9.566404e-07
 2.916169e-08
 -1.369778e-06
 -4.629951e-07
 -3.973926e-07
 -1.793339e-07
 0.000000e+00
 0.000000e+00
 -2.776746e-08
 -5.471962e-08
 -7.992672e-08
 -1.021557e-07
 -1.195025e-07
 -1.286330e-07
 -1.231678e-07
 -9.080151e-08
 -1.567837e-08
 2.070030e-08
 -2.309389e-07
 -4.951292e-07
 -4.194739e-07
 -2.621113e-07
 -1.865833e-07
 -1.634875e-07
 -1.636981e-07
 -1.712722e-07
 -1.801030e-07
 -1.886402e-07
 -1.971670e-07
 -2.069172e-07
 -2.200248e-07
 -2.395366e-07
 -2.674276e-07
 -2.917740e-07
 -2.667366e-07
 -1.740738e-07
 -1.252332e-07
 -2.727655e-07
 -1.359373e-06
 -1.109843e-07
 1.822394e-05
 9.972981e-08
 -5.130159e-08
 -1.226462e-07
 -1.348434e-07
 -1.200646e-07
 -8.880377e-08
 -4.369712e-08
 1.825494e-08
 1.064775e-07
 2.319434e-07
 3.021546e-07
 4.512342e-08
 -3.027019e-07
 -4.692401e-07
 -1.489146e-06
 -2.901418e-07
 0.000000e+00
 0.000000e+00
 -3.128248e-08
 -6.143046e-08
 -8.927520e-08
 -1.135211e-07
 -1.325709e-07
 -1.443631e-07
 -1.467131e-07
 -1.400558e-07
 -1.384822e-07
 -1.865412e-07
 -3.095719e-07
 -3.867539e-07
 -3.041750e-07
 -1.772523e-07
 -1.286869e-07
 -1.349410e-07
 -1.523790e-07
 -1.667288e-07
 -1.767665e-07
 -1.839051e-07
 -1.898869e-07
 -1.968289e-07
 -2.081687e-07
 -2.307950e-07