<VTKFile type="UnstructuredGrid"  version="0.1"   >
<UnstructuredGrid>  
<Piece  NumberOfPoints="     2601"  NumberOfCells="     5000">  
<Points>  
<DataArray  type="Float64"  NumberOfComponents="3"  format="ascii">  
 0.000000 0.000000 0.000000 
 0.020000 0.000000 0.000000 
 0.040000 0.000000 0.000000 
 0.060000 0.000000 0.000000 
 0.080000 0.000000 0.000000 
 0.100000 0.000000 0.000000 
 0.120000 0.000000 0.000000 
 0.140000 0.000000 0.000000 
 0.160000 0.000000 0.000000 
 0.180000 0.000000 0.000000 
 0.200000 0.000000 0.000000 
 0.220000 0.000000 0.000000 
 0.240000 0.000000 0.000000 
 0.260000 0.000000 0.000000 
 0.280000 0.000000 0.000000 
 0.300000 0.000000 0.000000 
 0.320000 0.000000 0.000000 
 0.340000 0.000000 0.000000 
 0.360000 0.000000 0.000000 
 0.380000 0.000000 0.000000 
 0.400000 0.000000 0.000000 
 0.420000 0.000000 0.000000 
 0.440000 0.000000 0.000000 
 0.460000 0.000000 0.000000 
 0.480000 0.000000 0.000000 
 0.500000 0.000000 0.000000 
 0.520000 0.000000 0.000000 
 0.540000 0.000000 0.000000 
 0.560000 0.000000 0.000000 
 0.580000 0.000000 0.000000 
 0.600000 0.000000 0.000000 
 0.620000 0.000000 0.000000 
 0.640000 0.000000 0.000000 
 0.660000 0.000000 0.000000 
 0.680000 0.000000 0.000000 
 0.700000 0.000000 0.000000 
 0.720000 0.000000 0.000000 
 0.740000 0.000000 0.000000 
 0.760000 0.000000 0.000000 
 0.780000 0.000000 0.000000 
 0.800000 0.000000 0.000000 
 0.820000 0.000000 0.000000 
 0.840000 0.000000 0.000000 
 0.860000 0.000000 0.000000 
 0.880000 0.000000 0.000000 
 0.900000 0.000000 0.000000 
 0.920000 0.000000 0.000000 
 0.940000 0.000000 0.000000 
 0.960000 0.000000 0.000000 
 0.980000 0.000000 0.000000 
 1.000000 0.000000 0.000000 
 0.000000 0.020000 0.000000 
 0.020000 0.020000 0.000000 
 0.040000 0.020000 0.000000 
 0.060000 0.020000 0.000000 
 0.080000 0.020000 0.000000 
 0.100000 0.020000 0.000000 
 0.120000 0.020000 0.000000 
 0.140000 0.020000 0.000000 
 0.160000 0.020000 0.000000 
 0.180000 0.020000 0.000000 
 0.200000 0.020000 0.000000 
 0.220000 0.020000 0.000000 
 0.240000 0.020000 0.000000 
 0.260000 0.020000 0.000000 
 0.280000 0.020000 0.000000 
 0.300000 0.020000 0.000000 
 0.320000 0.020000 0.000000 
 0.340000 0.020000 0.000000 
 0.360000 0.020000 0.000000 
 0.380000 0.020000 0.000000 
 0.400000 0.020000 0.000000 
 0.420000 0.020000 0.000000 
 0.440000 0.020000 0.000000 
 0.460000 0.020000 0.000000 
 0.480000 0.020000 0.000000 
 0.500000 0.020000 0.000000 
 0.520000 0.020000 0.000000 
 0.540000 0.020000 0.000000 
 0.560000 0.020000 0.000000 
 0.580000 0.020000 0.000000 
 0.600000 0.020000 0.000000 
 0.620000 0.020000 0.000000 
 0.640000 0.020000 0.000000 
 0.660000 0.020000 0.000000 
 0.680000 0.020000 0.000000 
 0.700000 0.020000 0.000000 
 0.720000 0.020000 0.000000 
 0.740000 0.020000 0.000000 
 0.760000 0.020000 0.000000 
 0.780000 0.020000 0.000000 
 0.800000 0.020000 0.000000 
 0.820000 0.020000 0.000000 
 0.840000 0.020000 0.000000 
 0.860000 0.020000 0.000000 
 0.880000 0.020000 0.000000 
 0.900000 0.020000 0.000000 
 0.920000 0.020000 0.000000 
 0.940000 0.020000 0.000000 
 0.960000 0.020000 0.000000 
 0.980000 0.020000 0.000000 
 1.000000 0.020000 0.000000 
 0.000000 0.040000 0.000000 
 0.020000 0.040000 0.000000 
 0.040000 0.040000 0.000000 
 0.060000 0.040000 0.000000 
 0.080000 0.040000 0.000000 
 0.100000 0.040000 0.000000 
 0.120000 0.040000 0.000000 
 0.140000 0.040000 0.000000 
 0.160000 0.040000 0.000000 
 0.180000 0.040000 0.000000 
 0.200000 0.040000 0.000000 
 0.220000 0.040000 0.000000 
 0.240000 0.040000 0.000000 
 0.260000 0.040000 0.000000 
 0.280000 0.040000 0.000000 
 0.300000 0.040000 0.000000 
 0.320000 0.040000 0.000000 
 0.340000 0.040000 0.000000 
 0.360000 0.040000 0.000000 
 0.380000 0.040000 0.000000 
 0.400000 0.040000 0.000000 
 0.420000 0.040000 0.000000 
 0.440000 0.040000 0.000000 
 0.460000 0.040000 0.000000 
 0.480000 0.040000 0.000000 
 0.500000 0.040000 0.000000 
 0.520000 0.040000 0.000000 
 0.540000 0.040000 0.000000 
 0.560000 0.040000 0.000000 
 0.580000 0.040000 0.000000 
 0.600000 0.040000 0.000000 
 0.620000 0.040000 0.000000 
 0.640000 0.040000 0.000000 
 0.660000 0.040000 0.000000 
 0.680000 0.040000 0.000000 
 0.700000 0.040000 0.000000 
 0.720000 0.040000 0.000000 
 0.740000 0.040000 0.000000 
 0.760000 0.040000 0.000000 
 0.780000 0.040000 0.000000 
 0.800000 0.040000 0.000000 
 0.820000 0.040000 0.000000 
 0.840000 0.040000 0.000000 
 0.860000 0.040000 0.000000 
 0.880000 0.040000 0.000000 
 0.900000 0.040000 0.000000 
 0.920000 0.040000 0.000000 
 0.940000 0.040000 0.000000 
 0.960000 0.040000 0.000000 
 0.980000 0.040000 0.000000 
 1.000000 0.040000 0.000000 
 0.000000 0.060000 0.000000 
 0.020000 0.060000 0.000000 
 0.040000 0.060000 0.000000 
 0.060000 0.060000 0.000000 
 0.080000 0.060000 0.000000 
 0.100000 0.060000 0.000000 
 0.120000 0.060000 0.000000 
 0.140000 0.060000 0.000000 
 0.160000 0.060000 0.000000 
 0.180000 0.060000 0.000000 
 0.200000 0.060000 0.000000 
 0.220000 0.060000 0.000000 
 0.240000 0.060000 0.000000 
 0.260000 0.060000 0.000000 
 0.280000 0.060000 0.000000 
 0.300000 0.060000 0.000000 
 0.320000 0.060000 0.000000 
 0.340000 0.060000 0.000000 
 0.360000 0.060000 0.000000 
 0.380000 0.060000 0.000000 
 0.400000 0.060000 0.000000 
 0.420000 0.060000 0.000000 
 0.440000 0.060000 0.000000 
 0.460000 0.060000 0.000000 
 0.480000 0.060000 0.000000 
 0.500000 0.060000 0.000000 
 0.520000 0.060000 0.000000 
 0.540000 0.060000 0.000000 
 0.560000 0.060000 0.000000 
 0.580000 0.060000 0.000000 
 0.600000 0.060000 0.000000 
 0.620000 0.060000 0.000000 
 0.640000 0.060000 0.000000 
 0.660000 0.060000 0.000000 
 0.680000 0.060000 0.000000 
 0.700000 0.060000 0.000000 
 0.720000 0.060000 0.000000 
 0.740000 0.060000 0.000000 
 0.760000 0.060000 0.000000 
 0.780000 0.060000 0.000000 
 0.800000 0.060000 0.000000 
 0.820000 0.060000 0.000000 
 0.840000 0.060000 0.000000 
 0.860000 0.060000 0.000000 
 0.880000 0.060000 0.000000 
 0.900000 0.060000 0.000000 
 0.920000 0.060000 0.000000 
 0.940000 0.060000 0.000000 
 0.960000 0.060000 0.000000 
 0.980000 0.060000 0.000000 
 1.000000 0.060000 0.000000 
 0.000000 0.080000 0.000000 
 0.020000 0.080000 0.000000 
 0.040000 0.080000 0.000000 
 0.060000 0.080000 0.000000 
 0.080000 0.080000 0.000000 
 0.100000 0.080000 0.000000 
 0.120000 0.080000 0.000000 
 0.140000 0.080000 0.000000 
 0.160000 0.080000 0.000000 
 0.180000 0.080000 0.000000 
 0.200000 0.080000 0.000000 
 0.220000 0.080000 0.000000 
 0.240000 0.080000 0.000000 
 0.260000 0.080000 0.000000 
 0.280000 0.080000 0.000000 
 0.300000 0.080000 0.000000 
 0.320000 0.080000 0.000000 
 0.340000 0.080000 0.000000 
 0.360000 0.080000 0.000000 
 0.380000 0.080000 0.000000 
 0.400000 0.080000 0.000000 
 0.420000 0.080000 0.000000 
 0.440000 0.080000 0.000000 
 0.460000 0.080000 0.000000 
 0.480000 0.080000 0.000000 
 0.500000 0.080000 0.000000 
 0.520000 0.080000 0.000000 
 0.540000 0.080000 0.000000 
 0.560000 0.080000 0.000000 
 0.580000 0.080000 0.000000 
 0.600000 0.080000 0.000000 
 0.620000 0.080000 0.000000 
 0.640000 0.080000 0.000000 
 0.660000 0.080000 0.000000 
 0.680000 0.080000 0.000000 
 0.700000 0.080000 0.000000 
 0.720000 0.080000 0.000000 
 0.740000 0.080000 0.000000 
 0.760000 0.080000 0.000000 
 0.780000 0.080000 0.000000 
 0.800000 0.080000 0.000000 
 0.820000 0.080000 0.000000 
 0.840000 0.080000 0.000000 
 0.860000 0.080000 0.000000 
 0.880000 0.080000 0.000000 
 0.900000 0.080000 0.000000 
 0.920000 0.080000 0.000000 
 0.940000 0.080000 0.000000 
 0.960000 0.080000 0.000000 
 0.980000 0.080000 0.000000 
 1.000000 0.080000 0.000000 
 0.000000 0.100000 0.000000 
 0.020000 0.100000 0.000000 
 0.040000 0.100000 0.000000 
 0.060000 0.100000 0.000000 
 0.080000 0.100000 0.000000 
 0.100000 0.100000 0.000000 
 0.120000 0.100000 0.000000 
 0.140000 0.100000 0.000000 
 0.160000 0.100000 0.000000 
 0.180000 0.100000 0.000000 
 0.200000 0.100000 0.000000 
 0.220000 0.100000 0.000000 
 0.240000 0.100000 0.000000 
 0.260000 0.100000 0.000000 
 0.280000 0.100000 0.000000 
 0.300000 0.100000 0.000000 
 0.320000 0.100000 0.000000 
 0.340000 0.100000 0.000000 
 0.360000 0.100000 0.000000 
 0.380000 0.100000 0.000000 
 0.400000 0.100000 0.000000 
 0.420000 0.100000 0.000000 
 0.440000 0.100000 0.000000 
 0.460000 0.100000 0.000000 
 0.480000 0.100000 0.000000 
 0.500000 0.100000 0.000000 
 0.520000 0.100000 0.000000 
 0.540000 0.100000 0.000000 
 0.560000 0.100000 0.000000 
 0.580000 0.100000 0.000000 
 0.600000 0.100000 0.000000 
 0.620000 0.100000 0.000000 
 0.640000 0.100000 0.000000 
 0.660000 0.100000 0.000000 
 0.680000 0.100000 0.000000 
 0.700000 0.100000 0.000000 
 0.720000 0.100000 0.000000 
 0.740000 0.100000 0.000000 
 0.760000 0.100000 0.000000 
 0.780000 0.100000 0.000000 
 0.800000 0.100000 0.000000 
 0.820000 0.100000 0.000000 
 0.840000 0.100000 0.000000 
 0.860000 0.100000 0.000000 
 0.880000 0.100000 0.000000 
 0.900000 0.100000 0.000000 
 0.920000 0.100000 0.000000 
 0.940000 0.100000 0.000000 
 0.960000 0.100000 0.000000 
 0.980000 0.100000 0.000000 
 1.000000 0.100000 0.000000 
 0.000000 0.120000 0.000000 
 0.020000 0.120000 0.000000 
 0.040000 0.120000 0.000000 
 0.060000 0.120000 0.000000 
 0.080000 0.120000 0.000000 
 0.100000 0.120000 0.000000 
 0.120000 0.120000 0.000000 
 0.140000 0.120000 0.000000 
 0.160000 0.120000 0.000000 
 0.180000 0.120000 0.000000 
 0.200000 0.120000 0.000000 
 0.220000 0.120000 0.000000 
 0.240000 0.120000 0.000000 
 0.260000 0.120000 0.000000 
 0.280000 0.120000 0.000000 
 0.300000 0.120000 0.000000 
 0.320000 0.120000 0.000000 
 0.340000 0.120000 0.000000 
 0.360000 0.120000 0.000000 
 0.380000 0.120000 0.000000 
 0.400000 0.120000 0.000000 
 0.420000 0.120000 0.000000 
 0.440000 0.120000 0.000000 
 0.460000 0.120000 0.000000 
 0.480000 0.120000 0.000000 
 0.500000 0.120000 0.000000 
 0.520000 0.120000 0.000000 
 0.540000 0.120000 0.000000 
 0.560000 0.120000 0.000000 
 0.580000 0.120000 0.000000 
 0.600000 0.120000 0.000000 
[...]
<PointData  Scalars="U"> 
<DataArray  type="Float64"  Name="U"  format="ascii"> 
 0.000000e+00
 0.000000e+00
 0.000000e+00
 0.000000e+00
 0.000000e+00
 0.000000e+00
 0.000000e+00
 0.000000e+00
 0.000000e+00
 0.000000e+00
 0.000000e+00
 0.000000e+00
 0.000000e+00
 0.000000e+00
 0.000000e+00
 0.000000e+00
 0.000000e+00
 0.000000e+00
 0.000000e+00
 0.000000e+00
 0.000000e+00
 0.000000e+00
 0.000000e+00
 0.000000e+00
 0.000000e+00
 0.000000e+00
 0.000000e+00
 0.000000e+00
 0.000000e+00
 0.000000e+00
 0.000000e+00
 0.000000e+00
 0.000000e+00
 0.000000e+00
 0.000000e+00
 0.000000e+00
 0.000000e+00
 0.000000e+00
 0.000000e+00
 0.000000e+00
 0.000000e+00
 0.000000e+00
 0.000000e+00
 0.000000e+00
 0.000000e+00
 0.000000e+00
 0.000000e+00
 0.000000e+00
 0.000000e+00
 0.000000e+00
 0.000000e+00
 0.000000e+00
 1.006508e-07
 1.730519e-05
 -4.065227e-07
 -3.542713e-07
 -3.256571e-07
 -3.574800e-07
 -4.750985e-07
 -7.753014e-07
 -1.642909e-06
 -3.763116e-06
 -4.015088e-06
 -1.545874e-06
 -1.132813e-06
 -1.528865e-06
 -3.216905e-06
 -7.304692e-06
 -7.332933e-06
 -1.901308e-06
 -4.356728e-07
 -8.494598e-09
 3.455135e-05
 -7.523138e-07
 -5.612143e-07
 -5.241691e-07
 -1.541361e-06
 -3.791522e-07
 3.847874e-07
 -1.134100e-07
 -8.118562e-08
 7.141157e-08
 1.871345e-07
 7.411494e-08
 -5.811177e-08
 -1.928540e-07
 -2.403453e-07
 8.909238e-09
 2.208710e-07
 1.531654e-07
 4.222651e-08
 -1.332087e-07
 -1.235393e-06
 -2.227205e-08
 7.904636e-07
 1.232467e-07
 -5.498491e-08
 -1.877850e-07
 -2.414389e-07
 -1.405428e-08
 1.427778e-07
 0.000000e+00
 0.000000e+00
 7.557773e-07
 -2.308582e-07
 -1.671701e-06
 -6.831375e-07
 -5.857893e-07
 -6.398429e-07
 -8.014172e-07
 -1.125332e-06
 -1.731255e-06
 -2.487483e-06
 -2.615813e-06
 -1.948403e-06
 -1.583114e-06
 -2.076446e-06
 -3.289521e-06
 -5.436016e-06
 -3.860904e-06
 -1.455038e-06
 -6.040065e-07
 1.130151e-06
 -5.492044e-07
 -3.196408e-06
 -1.005321e-06
 -5.673295e-07
 -4.651068e-07
 1.688048e-05
 -1.680222e-06
 -4.935948e-07
 -6.613385e-07
 1.656332e-08
 7.661876e-07
 7.927113e-08
 -1.170643e-07
 -2.982931e-07
 -1.353014e-06
 -2.744543e-08
 8.855444e-07
 2.543894e-07
 1.078159e-07
 7.905065e-08
 1.780603e-08
 1.743046e-05
 -7.203091e-08
 -7.029452e-08
 -1.237711e-07
 -2.761663e-07
 -1.341567e-06
 -4.565232e-08
 8.044024e-07
 0.000000e+00
 0.000000e+00
 6.024282e-08
 -2.431197e-07
 -6.227923e-07
 -7.019107e-07
 -7.197554e-07
 -8.285511e-07
 -9.833972e-07
 -1.172330e-06
 -1.484019e-06
 -1.955381e-06
 -3.178716e-06
 -1.866467e-06
 -1.029705e-06
 -1.971608e-06
 -2.657063e-06
 -3.106209e-06
 1.473188e-05
 -1.937454e-06
 -1.182691e-06
 -4.598689e-07
 -5.103300e-07
 -9.958036e-07
 -8.640614e-07
 -4.114107e-07
 4.107447e-07
 -3.842012e-07
 -1.676535e-06
 1.689178e-05
 -4.128613e-07
 1.714110e-05
 -2.979198e-07
 -2.364022e-07
 -1.930242e-07
 -1.055136e-07
 -6.726388e-08
 1.742924e-05
 -1.153962e-08
 4.114334e-08
 8.555366e-08
 2.503363e-07
 8.842943e-07
 -3.904407e-08
 -1.368031e-06
 -2.996025e-07
 -1.180402e-07
 -3.333819e-08
 -2.968149e-08
 1.744225e-05
 -1.549592e-08
 0.000000e+00
 0.000000e+00
 -8.796991e-08
 -2.630365e-07
 -4.660562e-07
 -6.143303e-07
 -7.546046e-07
 -9.743749e-07
 -1.159730e-06
 -1.080281e-06
 -1.062080e-06
 -1.303105e-06
 -1.551853e-06
 1.578939e-05
 -1.775480e-06
 -1.905293e-06
 -2.110011e-06
 -2.647448e-06
 -2.162500e-06
 -2.388869e-06
 -2.609477e-06
 -9.968487e-07
 -2.914783e-08
 -6.740631e-07
 -6.862815e-07
 -4.481618e-07
 -1.962733e-07
 -1.554594e-07
 3.206614e-07
 -3.541829e-07
 -8.948418e-07
 -6.661259e-07
 -1.780020e-06
 -6.182214e-07
 -3.109041e-07
 5.629577e-08
 8.465192e-07
 -1.141197e-08
 -1.323686e-06
 -2.419409e-07
 -2.599074e-08
 1.263551e-07
 2.060799e-07
 -2.402442e-08
 -2.901932e-07
 -2.266076e-07
 -4.082986e-08
 2.024321e-07
 8.918947e-07
 2.213075e-08
 -1.234919e-06
 0.000000e+00
 0.000000e+00
 -1.138348e-07
 -2.497644e-07
 -3.967052e-07
 -5.388728e-07
 -7.015751e-07
 -9.826153e-07
 -2.180767e-06
 -1.002488e-06
 -2.042549e-07
 -8.247589e-07
 -4.521492e-07
 -1.478783e-06
 -2.861331e-06
 -1.831643e-06
 -1.636134e-06
 -1.573665e-06
 1.575523e-05
 -1.769195e-06
 -1.500635e-06
 1.625316e-05
 -1.028653e-06
 -8.742003e-07
 -7.364847e-07
 -5.531312e-07
 -3.850483e-07
 -2.650227e-07
 -1.923404e-07
 -3.152574e-07
 -4.779502e-07
 -6.366395e-07
 -7.855050e-07
 -7.306993e-07
 -5.225426e-07
 -3.549771e-08
 3.303310e-07
 7.702222e-08
 -2.627980e-07
 -2.436989e-07
 -1.077702e-07
 -1.638618e-08
 8.867199e-09
 -5.527610e-08
 -1.252188e-07
 -1.010811e-07
 5.965253e-09
 1.624261e-07
 2.697871e-07
 7.454894e-08
 -1.437631e-07
 0.000000e+00
 0.000000e+00
 -1.096247e-07
 -2.242241e-07
 -3.404345e-07
 -4.520019e-07
 -5.579115e-07
 -6.547788e-07
 -8.007436e-07
 1.654307e-05
 -1.004963e-06
 -1.000961e-06
 -1.034403e-06
 -1.302450e-06
 -1.574432e-06
 -1.500238e-06
 -1.227628e-06
 -5.312500e-07
 -1.401411e-06
 -2.534126e-06
 -7.035743e-07
 -1.276508e-06
 -2.384014e-06
 -1.155490e-06
 -8.391334e-07
 -6.409925e-07
 -4.981865e-07
 -4.058982e-07
 -3.716706e-07
 -4.061107e-07
 -4.702928e-07
 -5.311252e-07
 -5.781437e-07
 -6.592848e-07
 -1.602703e-06
 -1.770907e-07
 7.758268e-07
 8.334572e-08
 -1.494157e-07
 -1.935059e-07
 -1.508245e-07
 -9.871159e-08
 -7.195035e-08
 -7.614438e-08
 -8.337683e-08
 -5.789053e-08
 7.784982e-09
 8.817037e-08
 1.242530e-07
 7.051792e-08
 1.725852e-09
 0.000000e+00
 0.000000e+00
 -9.850166e-08
 -1.964881e-07
 -2.901932e-07
 -3.710660e-07
 -4.184250e-07
 -3.585523e-07
 1.711480e-07
 -8.525866e-07
 -2.281534e-06
 -1.311378e-06
 -1.212600e-06
 -1.200500e-06
 -1.203776e-06
 -1.173207e-06
 -1.075885e-06
 -1.000011e-06
 -1.190683e-06
 -1.348699e-06
 -1.188238e-06
 -1.208725e-06
 -1.306696e-06
 -1.114464e-06
 -8.573904e-07
 -6.794414e-07
 -5.613567e-07
 -4.929514e-07
 -4.678942e-07
 -4.712057e-07
 -4.703224e-07
 -4.407201e-07
 -3.855417e-07
 -3.089882e-07
 -2.766346e-07
 1.723000e-05
 -2.101239e-07
 -1.941663e-07
 -2.275630e-07
 -2.253859e-07
 -1.946864e-07
 -1.523222e-07
 -1.147098e-07
 -9.222818e-08
 -8.050030e-08
 -5.993541e-08
 -1.162336e-08
 5.580305e-08
 9.820992e-08
 8.554031e-08
 4.185211e-08
 0.000000e+00
 0.000000e+00
 -8.725568e-08
 -1.723349e-07
 -2.514325e-07
 -3.176199e-07
 -3.585807e-07
 -3.596569e-07
 -4.069598e-07
 -7.636415e-07
 -1.181914e-06
 -1.339124e-06
 -1.336069e-06
 -1.080072e-06
 -8.694997e-07
 -9.222051e-07
 -9.841591e-07
 -1.023982e-06
 -1.099813e-06
 -1.157904e-06
 -1.152038e-06
 -1.144076e-06
 -1.106132e-06
 -9.711733e-07
 -7.970043e-07
 -6.599776e-07
 -5.756343e-07
 -5.354120e-07
 -5.312925e-07
 -5.419827e-07
 -5.056187e-07
 -3.758806e-07
 -2.088675e-07
 2.334204e-09
 6.531252e-07
 -2.510373e-07
 -1.566775e-06
 -5.038883e-07
 -3.433779e-07
 -2.878273e-07
 -2.497707e-07
 -2.004696e-07
 -1.395881e-07
 -9.451554e-08
 -8.616817e-08
 -9.462115e-08
 -5.840686e-08
 5.089103e-08
 1.398381e-07
 1.328812e-07
 7.114459e-08
 0.000000e+00
 0.000000e+00
 -7.790151e-08
 -1.536733e-07
 -2.247024e-07
 -2.880201e-07
 -3.426806e-07
 -4.004458e-07
 -5.050260e-07
 -6.989062e-07
 -9.292846e-07
 -1.187741e-06
 -2.290666e-06
 -9.985692e-07
 -1.091809e-07
 -7.567835e-07
 -9.206641e-07
 -9.822367e-07
 -1.027535e-06
 -1.064893e-06
 -1.089863e-06
 -1.098115e-06
 -1.036685e-06
 -8.668194e-07
 -6.850127e-07
 -5.851446e-07
 -5.468932e-07
 -5.405912e-07
 -5.702183e-07
 -6.590719e-07
 -6.624639e-07
 -3.387768e-07
 -2.335146e-08
 4.089295e-08
 2.756227e-08
 -2.416295e-07
 -5.270840e-07
 -4.945046e-07
 -3.843660e-07
 -3.389230e-07
 -3.201004e-07
 -2.664491e-07
 -1.473744e-07
 -5.248568e-08
 -6.584572e-08
 -1.767833e-07
 -2.092789e-07
 7.130787e-08
 3.063442e-07
 2.308056e-07
 1.019032e-07
 0.000000e+00
 0.000000e+00
 -7.058208e-08
 -1.396511e-07
 -2.058365e-07
 -2.685934e-07
 -3.301672e-07
 -3.988862e-07
 -4.882102e-07
 -6.002477e-07
 -7.082399e-07
 -7.754756e-07
 -8.570523e-07
 1.656575e-05
 -9.187423e-07
 -9.060427e-07
 -9.308975e-07
 -9.447460e-07
 -9.621544e-07
 -9.876831e-07
 -1.031904e-06
 -1.119797e-06
 -1.110540e-06
 -7.722351e-07
 -4.622856e-07
 -4.518522e-07
 -4.930245e-07
 -5.130445e-07
 -5.496000e-07
 -6.917053e-07
 -1.729446e-06
 -3.747228e-07
 5.807369e-07
 -1.470192e-08
 -1.745079e-07
 -2.968722e-07
 -3.880407e-07
 -3.927484e-07
 -3.595514e-07
 -3.574287e-07
 -4.268706e-07
 -4.282279e-07
 -1.280639e-07
 1.220729e-07
 4.675748e-08
 -1.751321e-07
 -1.258337e-06
 5.549322e-08
 9.559307e-07
 2.960903e-07
 1.003229e-07
 0.000000e+00
 0.000000e+00
 -6.478577e-08
 -1.286149e-07
 -1.908043e-07
 -2.514170e-07
 -3.119177e-07
 -3.751491e-07
 -4.422103e-07
 -5.042217e-07
 -5.301220e-07
 -4.334087e-07
 1.529920e-07
 -7.983835e-07
 -2.147223e-06
 -1.100978e-06
 -9.475148e-07
 -9.020815e-07
 -8.897259e-07
 -8.951156e-07
 -9.302710e-07
 -1.069507e-06
 -2.098859e-06
 -7.327141e-07
 2.319572e-07
 -3.524630e-07
 -4.654243e-07
 -4.734349e-07
 -4.517506e-07
 -4.120282e-07
 -4.157548e-07
 1.706621e-05
 -3.744533e-07
 -3.380042e-07
 -3.602671e-07
 -3.743026e-07
 -3.637313e-07
 -3.286344e-07
 -2.968629e-07
 -3.033419e-07
 -4.324969e-07
 -1.475683e-06
 -1.429862e-07
 7.860679e-07
 1.885614e-07
 9.972447e-08
 7.180613e-08
 1.753413e-05
 6.218252e-08
 6.859212e-08
 2.877135e-08
 0.000000e+00
 0.000000e+00
 -5.998555e-08
 -1.193342e-07
 -1.775922e-07
 -2.346655e-07
 -2.908197e-07
 -3.459961e-07
 -3.977448e-07
 -4.377716e-07
 -4.488327e-07
 -4.101342e-07
 -4.030898e-07
 -6.858937e-07
 -9.979411e-07
 -9.874236e-07
 -8.858218e-07
 -8.329707e-07
 -8.029273e-07
 -7.800036e-07
 -7.545906e-07
 -7.134664e-07
 -7.101994e-07
 1.678683e-05
 -6.287020e-07
 -5.522750e-07
 -5.148710e-07
 -4.561406e-07
 -3.657631e-07
 -1.708170e-07
 4.910230e-07
 -4.075580e-07
 -1.728135e-06
 -6.819882e-07
 -5.458687e-07
 -4.810451e-07
 -3.699723e-07
 -2.601599e-07
 -2.011130e-07
 -1.563576e-07
 -1.067177e-07
 -1.241380e-07
 1.732606e-05
 -1.296027e-07
 -8.904853e-09
 2.593101e-07
 1.003458e-06
 1.138667e-07
 -1.231769e-06
 -1.960192e-07
 -5.007602e-08
 0.000000e+00
 0.000000e+00
 -5.585214e-08
 -1.112075e-07
 -1.656419e-07
 -2.188206e-07
 -2.703485e-07
 -3.192959e-07
 -3.634076e-07
 -3.986876e-07
 -4.217443e-07
 -4.412467e-07
 -4.974989e-07
 -6.266173e-07
 -7.553499e-07
 -7.959501e-07
 -7.756213e-07
 -7.433054e-07
 -7.100075e-07
 -6.672118e-07
 -5.906875e-07
 -4.022640e-07
 2.634006e-07
 -6.177958e-07
 -1.902229e-06
 -7.948725e-07
 -5.795030e-07
 -4.632773e-07
 -3.567491e-07
 -2.246927e-07
 -1.462416e-07
 -3.808786e-07
 -6.742601e-07
 -6.903143e-07
 -6.881639e-07
 -6.688960e-07
 -3.725818e-07
 -1.175408e-07
 -1.009799e-07
 -1.530243e-08
 2.090872e-07
 8.422609e-07
 -1.266918e-07
 -1.537868e-06
 -4.390070e-07
 1.235973e-07
 4.933437e-07
 2.250567e-07
 -1.401831e-07
 -1.558749e-07
 -6.131156e-08
 0.000000e+00
 0.000000e+00
 -5.222880e-08
 -1.040210e-07
 -1.549467e-07
 -2.045493e-07
 -2.522332e-07
 -2.970813e-07
 -3.377869e-07
 -3.732419e-07
 -4.047264e-07
 -4.397644e-07
 -4.917172e-07
 -5.635014e-07
 -6.306217e-07
 -6.656590e-07
 -6.684028e-07
 -6.524519e-07
 -6.247511e-07
 -5.819421e-07
 -5.114030e-07
 -3.964605e-07
 -3.202313e-07
 -5.402644e-07
 -7.944049e-07
 -7.291025e-07
 -5.737007e-07
 -4.656563e-07
 -3.790145e-07
 -3.113772e-07
 -2.993594e-07
 -3.794495e-07
 -4.843974e-07
 -5.479743e-07
 -6.783385e-07
 -1.718600e-06
 -4.088442e-07
 4.358494e-07
 -1.793972e-07
 1.448409e-08
 3.162443e-07
 3.018149e-07
 -6.398713e-08
 -5.144227e-07
 -1.504952e-06
 -1.625107e-08
 9.594289e-07
 2.637871e-07
 1.342396e-08
 -5.531208e-08
 -3.777405e-08
 0.000000e+00
 0.000000e+00
 -4.904430e-08
 -9.769879e-08
 -1.455541e-07
 -1.921419e-07
 -2.368727e-07
 -2.789977e-07
 -3.177431e-07
 -3.528611e-07
 -3.856955e-07
 -4.199484e-07
 -4.597953e-07
 -5.042918e-07
 -5.443933e-07
 -5.699592e-07
 -5.780808e-07
 -5.715888e-07
 -5.531355e-07
 -5.227679e-07
 -4.804768e-07
 -4.375484e-07
 -4.356595e-07
 -5.110828e-07
 -5.900738e-07
 -5.843346e-07
 -5.209940e-07
 -4.505065e-07
 -3.898842e-07
 -3.471458e-07
 -3.338189e-07
 -3.509234e-07
 -3.724329e-07
 -3.693653e-07
 -3.349668e-07
 -3.460414e-07
 1.709886e-05
 -4.851799e-07
 -1.477794e-06
 -1.228265e-07
 8.311620e-07
 1.945617e-07
 -3.357735e-08
 -1.205235e-07
 -1.131913e-07
 1.743392e-05
 1.919782e-08
 3.236164e-08
 -1.770007e-08
 -3.543175e-08
 -2.441992e-08
 0.000000e+00
 0.000000e+00
 -4.624699e-08
 -9.216682e-08
 -1.374085e-07
 -1.815608e-07
 -2.241019e-07
 -2.643631e-07
 -3.015905e-07
 -3.352308e-07
 -3.654731e-07
 -3.936364e-07
 -4.214839e-07
 -4.492385e-07
 -4.742986e-07
 -4.927826e-07
 -5.021977e-07
 -5.021294e-07
 -4.932340e-07
 -4.768189e-07
 -4.564766e-07
 -4.415311e-07
 -4.463450e-07
 -4.741035e-07
 -5.002695e-07
 -4.976387e-07
 -4.670807e-07
 -4.249930e-07
 -3.842236e-07
 -3.520971e-07
 -3.316092e-07
 -3.173020e-07
 -2.910895e-07
 -2.208296e-07
 -2.866599e-08
 6.443799e-07
 -2.303348e-07
 -1.502846e-06
 -4.346289e-07
 1.721810e-05
 -1.692234e-07
 -1.195181e-07
 -1.113253e-07
 6.567561e-08
 8.185243e-07
 2.663819e-08
 -1.260226e-06
 -2.188142e-07
 -8.461073e-08
 -4.663470e-08
 -2.340710e-08
 0.000000e+00
 0.000000e+00
 -4.377324e-08
 -8.730347e-08
 -1.303337e-07
 -1.725642e-07
 -2.135902e-07
 -2.527868e-07
 -2.891494e-07
 -3.212189e-07
 -3.474538e-07
 -3.673681e-07
 -3.826904e-07
 -3.966262e-07
 -4.110895e-07
 -4.250783e-07
 -4.359531e-07
 -4.415442e-07
 -4.411599e-07
 -4.358041e-07
 -4.284759e-07
 -4.242016e-07
 -4.277224e-07
 -4.380020e-07
 -4.458174e-07
 -4.414369e-07
 -4.234013e-07
 -3.972290e-07
 -3.694209e-07
 -3.440093e-07
 -3.208657e-07
 -2.937716e-07
 -2.493469e-07
 -1.680847e-07
 -3.102450e-08
 7.993555e-08
 -7.817604e-08
 -1.709419e-07
 5.178562e-07
 -2.682266e-07
 -1.529601e-06
 -4.552125e-07
 -3.268811e-07
 -1.881282e-07
 1.929726e-07
 2.235055e-07
 -9.576896e-08
 -1.526414e-07
 -8.821425e-08
 -5.105025e-08
 -2.436039e-08
 0.000000e+00
 0.000000e+00
 -4.154057e-08
 -8.293388e-08
 -1.240427e-07
 -1.647372e-07
 -2.048434e-07
 -2.439569e-07
 -2.809613e-07
 -3.132075e-07
 -3.361859e-07
 -3.460172e-07
 -3.450275e-07
 -3.428944e-07
 -3.480628e-07
 -3.606110e-07
 -3.752626e-07
 -3.872082e-07
 -3.943872e-07
 -3.971645e-07
 -3.975061e-07
 -3.980508e-07
 -4.005840e-07
 -4.042321e-07
 -4.053401e-07
 -4.001805e-07
 -3.878965e-07
 -3.706405e-07
 -3.515564e-07
 -3.326150e-07
 -3.128012e-07
 -2.865353e-07
 -2.437334e-07
 -1.755531e-07
 -9.118793e-08
 -3.647502e-08
 -4.591786e-08
 -3.287664e-08
 9.548957e-09
 -2.015934e-07
 -4.559406e-07
 -4.279387e-07
 -4.186708e-07
 -1.362493e-06
 5.144500e-09
 8.601141e-07
 1.375102e-07
 -4.257896e-08
 -6.399746e-08
 -4.705772e-08
 -2.392149e-08
 0.000000e+00
 0.000000e+00
 -3.945712e-08
 -7.885100e-08
 -1.181623e-07
 -1.574680e-07
 -1.969837e-07
 -2.369776e-07
 -2.771391e-07
 -3.144307e-07
 -3.392212e-07
 -3.371023e-07
 -3.082430e-07
 -2.800723e-07
 -2.767099e-07
 -2.942608e-07
 -3.178084e-07
 -3.380461e-07
 -3.522815e-07
 -3.610934e-07
 -3.662095e-07
 -3.694193e-07
 -3.717641e-07
 -3.729803e-07
 -3.717116e-07
 -3.666162e-07
 -3.575215e-07
 -3.456718e-07
 -3.330525e-07
 -3.213015e-07
 -3.102885e-07
 -2.957229e-07
 -2.660878e-07
 -2.069971e-07
 -1.245905e-07
 -5.803971e-08
 -3.486954e-08
 -3.972222e-08
 -7.421135e-08
 -1.668294e-07
 -2.534536e-07
 -2.448615e-07
 -1.500959e-07
 -8.224563e-08
 1.743641e-05
 -2.493401e-08
 -2.957210e-08
 -6.450153e-08
 -6.350319e-08
 -4.633945e-08
 -2.384192e-08
 0.000000e+00
 0.000000e+00
 -3.744390e-08
 -7.486661e-08
 -1.123131e-07
 -1.500096e-07
 -1.885891e-07
 -2.294580e-07
 -2.750071e-07
 -3.266517e-07
 -3.715817e-07
 -3.613457e-07
 -2.699423e-07
 -1.860262e-07
 -1.829186e-07
 -2.234080e-07
 -2.648226e-07
 -2.953733e-07
 -3.157631e-07
 -3.287248e-07
 -3.366904e-07
 -3.414123e-07
 -3.438595e-07
 -3.442138e-07
 -3.421357e-07
 -3.373159e-07
 -3.300339e-07
 -3.214200e-07
 -3.134111e-07
 -3.086107e-07
 -3.099941e-07
 -3.187300e-07
 -3.213638e-07
 -2.696691e-07
 -1.400539e-07
 -2.499882e-08
 1.012708e-10
 -2.872635e-08
 -7.544116e-08
 -1.312554e-07
 -1.727003e-07
 -1.469581e-07
 6.386745e-08
 8.297801e-07
 2.366443e-08
 -1.285667e-06
 -2.568165e-07
 -1.216763e-07
 -7.740463e-08
 -4.977861e-08
 -2.473958e-08
 0.000000e+00
 0.000000e+00
 -3.546162e-08
 -7.088562e-08
 -1.062767e-07
 -1.417961e-07
 -1.781044e-07
 -2.173168e-07
 -2.653707e-07
 -3.369400e-07
 -4.594653e-07
 -4.964240e-07
 -2.197843e-07
 1.635010e-08
 -4.945413e-08
 -1.579967e-07
 -2.241931e-07
 -2.630174e-07
 -2.865873e-07
 -3.012369e-07
 -3.102830e-07
 -3.155403e-07
 -3.179512e-07
 -3.178844e-07
 -3.154095e-07
 -3.106295e-07
 -3.040147e-07
 -2.966729e-07
 -2.906516e-07
 -2.896377e-07
 -3.008440e-07
 -3.393263e-07
 -4.317512e-07
 -4.402778e-07
 -1.361823e-07
 1.259988e-07
 8.364041e-08
 -6.394188e-09
 -6.326126e-08
 -1.060600e-07
 -1.500584e-07
 -2.093523e-07
 -1.333686e-07
 2.163784e-07
 2.226610e-07
 -1.153237e-07
 -1.825348e-07
 -1.204371e-07
 -8.127733e-08
 -5.187272e-08
 -2.552432e-08
 0.000000e+00
 0.000000e+00
 -3.352241e-08
 -6.695814e-08
 -1.001805e-07
 -1.329995e-07
 -1.652780e-07
 -1.977015e-07
 -2.349230e-07
 -2.968546e-07
 -4.639189e-07
 -1.528996e-06
 -2.113381e-07
 6.927666e-07
 4.119279e-08
 -1.389252e-07
 -2.094641e-07
 -2.449520e-07
 -2.658749e-07
 -2.791260e-07
 -2.875265e-07
 -2.924192e-07
 -2.944681e-07
 -2.939689e-07
 -2.910521e-07
 -2.858845e-07
 -2.788697e-07
 -2.708487e-07
 -2.634029e-07
 -2.596548e-07
 -2.669010e-07
 -3.064492e-07
 -4.571686e-07
 -1.507629e-06
 -1.727085e-07
 7.534844e-07
 1.288618e-07
 -2.122154e-08
 -6.313065e-08
 -7.991810e-08
 -1.119549e-07
 -2.427665e-07
 -1.273652e-06
 3.693924e-08
 8.563083e-07
 1.147251e-07
 -7.303446e-08
 -9.563138e-08
 -7.700611e-08
 -5.157823e-08
 -2.567010e-08
 0.000000e+00
 0.000000e+00
 -3.166311e-08
 -6.323110e-08
 -9.448284e-08
 -1.248281e-07
 -1.527955e-07
 -1.752150e-07
 -1.868282e-07
 -1.819684e-07
 -1.544269e-07
 -1.707407e-07
 1.729011e-05
 -1.789892e-07
 -1.677314e-07
 -2.021319e-07
 -2.235253e-07
 -2.397538e-07
 -2.522932e-07
 -2.616568e-07
 -2.681754e-07
 -2.720822e-07
 -2.735052e-07
 -2.724769e-07
 -2.689856e-07
 -2.630579e-07
 -2.548439e-07
 -2.446674e-07
 -2.330114e-07
 -2.204137e-07
 -2.071676e-07
 -1.921797e-07
 -1.669192e-07
 -1.872576e-07
 1.727858e-05
 -1.723142e-07
 -1.290363e-07
 -1.175227e-07
 -8.303049e-08
 -4.291056e-08
 -5.787645e-09
 3.334775e-08
 1.366303e-08
 1.745539e-05
 -4.853561e-08
 -6.677145e-08
 -1.018028e-07
 -9.718133e-08
 -7.637679e-08
 -5.117616e-08
 -2.548572e-08
 0.000000e+00
 0.000000e+00
 -2.988093e-08
 -5.976631e-08
 -8.955652e-08
 -1.187481e-07
 -1.454427e-07
 -1.634060e-07
 -1.557308e-07
 -8.725395e-08
 1.166589e-07
 7.911092e-07
 -1.140553e-07
 -1.452240e-06
 -4.138619e-07
 -2.744026e-07
 -2.421678e-07
 -2.381549e-07
 -2.418679e-07
 -2.470175e-07
 -2.514177e-07
 -2.542121e-07
 -2.549851e-07
 -2.534542e-07
 -2.493771e-07
 -2.425483e-07
 -2.328095e-07
 -2.199788e-07
 -2.035354e-07
 -1.816681e-07
 -1.484275e-07
 -8.389267e-08
 8.661706e-08
 7.262088e-07
 -1.895227e-07
 -1.513236e-06
 -4.387520e-07
 -2.341773e-07
 -1.075716e-07
 -7.508482e-10
 1.023942e-07
 2.841766e-07
 9.196918e-07
 -1.086494e-08
 -1.359364e-06
 -3.204285e-07
 -1.685049e-07
 -1.127531e-07
 -7.882489e-08
 -5.081905e-08
 -2.498303e-08
 0.000000e+00
 0.000000e+00
 -2.808121e-08
 -5.634498e-08
 -8.504488e-08
 -1.145579e-07
 -1.450983e-07
 -1.740612e-07
 -1.815987e-07
 -1.070232e-07
 9.002886e-08
 2.350813e-07
 -4.635876e-09
 -3.304889e-07
 -3.462850e-07
 -2.696601e-07
 -2.392229e-07
 -2.305879e-07
 -2.305470e-07
 -2.333095e-07
 -2.363265e-07
 -2.383801e-07
 -2.387733e-07
 -2.369836e-07
 -2.325300e-07
 -2.249508e-07
 -2.138251e-07
 -1.987288e-07
 -1.789321e-07
 -1.525358e-07
 -1.146016e-07
 -5.410025e-08
 4.319660e-08
 9.150497e-08
 -1.693830e-07
 -4.777350e-07
 -4.649203e-07
 -3.086552e-07
 -1.165518e-07
 5.569903e-08
 1.599087e-07
 2.515595e-07
 2.877761e-07
 2.120157e-08
 -2.845452e-07
 -2.729324e-07
 -1.700636e-07
 -1.130203e-07
 -7.669289e-08
 -4.855278e-08
 -2.367815e-08
 0.000000e+00
 0.000000e+00
 -2.611052e-08
 -5.251226e-08
 -7.973305e-08
 -1.091012e-07
 -1.444553e-07
 -1.966421e-07
 -2.886152e-07
 -2.829514e-07
 3.432464e-08
 2.635066e-07
 1.046636e-07
 -1.092297e-07
 -2.036305e-07
 -2.192619e-07
 -2.168520e-07
 -2.155677e-07
 -2.168994e-07
 -2.195419e-07
 -2.222742e-07