<VTKFile type="UnstructuredGrid"  version="0.1"   >
<UnstructuredGrid>  
<Piece  NumberOfPoints="     2601"  NumberOfCells="     5000">  
<Points>  
<DataArray  type="Float64"  NumberOfComponents="3"  format="ascii">  
 0.000000 0.000000 0.000000 
 0.020000 0.000000 0.000000 
 0.040000 0.000000 0.000000 
 0.060000 0.000000 0.000000 
 0.080000 0.000000 0.000000 
 0.100000 0.000000 0.000000 
 0.120000 0.000000 0.000000 
 0.140000 0.000000 0.000000 
 0.160000 0.000000 0.000000 
 0.180000 0.000000 0.000000 
 0.200000 0.000000 0.000000 
 0.220000 0.000000 0.000000 
 0.240000 0.000000 0.000000 
 0.260000 0.000000 0.000000 
 0.280000 0.000000 0.000000 
 0.300000 0.000000 0.000000 
 0.320000 0.000000 0.000000 
 0.340000 0.000000 0.000000 
 0.360000 0.000000 0.000000 
 0.380000 0.000000 0.000000 
 0.400000 0.000000 0.000000 
 0.420000 0.000000 0.000000 
 0.440000 0.000000 0.000000 
 0.460000 0.000000 0.000000 
 0.480000 0.000000 0.000000 
 0.500000 0.000000 0.000000 
 0.520000 0.000000 0.000000 
 0.540000 0.000000 0.000000 
 0.560000 0.000000 0.000000 
 0.580000 0.000000 0.000000 
 0.600000 0.000000 0.000000 
 0.620000 0.000000 0.000000 
 0.640000 0.000000 0.000000 
 0.660000 0.000000 0.000000 
 0.680000 0.000000 0.000000 
 0.700000 0.000000 0.000000 
 0.720000 0.000000 0.000000 
 0.740000 0.000000 0.000000 
 0.760000 0.000000 0.000000 
 0.780000 0.000000 0.000000 
 0.800000 0.000000 0.000000 
 0.820000 0.000000 0.000000 
 0.840000 0.000000 0.000000 
 0.860000 0.000000 0.000000 
 0.880000 0.000000 0.000000 
 0.900000 0.000000 0.000000 
 0.920000 0.000000 0.000000 
 0.940000 0.000000 0.000000 
 0.960000 0.000000 0.000000 
 0.980000 0.000000 0.000000 
 1.000000 0.000000 0.000000 
 0.000000 0.020000 0.000000 
 0.020000 0.020000 0.000000 
 0.040000 0.020000 0.000000 
 0.060000 0.020000 0.000000 
 0.080000 0.020000 0.000000 
 0.100000 0.020000 0.000000 
 0.120000 0.020000 0.000000 
 0.140000 0.020000 0.000000 
 0.160000 0.020000 0.000000 
 0.180000 0.020000 0.000000 
 0.200000 0.020000 0.000000 
 0.220000 0.020000 0.000000 
 0.240000 0.020000 0.000000 
 0.260000 0.020000 0.000000 
 0.280000 0.020000 0.000000 
 0.300000 0.020000 0.000000 
 0.320000 0.020000 0.000000 
 0.340000 0.020000 0.000000 
 0.360000 0.020000 0.000000 
 0.380000 0.020000 0.000000 
 0.400000 0.020000 0.000000 
 0.420000 0.020000 0.000000 
 0.440000 0.020000 0.000000 
 0.460000 0.020000 0.000000 
 0.480000 0.020000 0.000000 
 0.500000 0.020000 0.000000 
 0.520000 0.020000 0.000000 
 0.540000 0.020000 0.000000 
 0.560000 0.020000 0.000000 
 0.580000 0.020000 0.000000 
 0.600000 0.020000 0.000000 
 0.620000 0.020000 0.000000 
 0.640000 0.020000 0.000000 
 0.660000 0.020000 0.000000 
 0.680000 0.020000 0.000000 
 0.700000 0.020000 0.000000 
 0.720000 0.020000 0.000000 
 0.740000 0.020000 0.000000 
 0.760000 0.020000 0.000000 
 0.780000 0.020000 0.000000 
 0.800000 0.020000 0.000000 
 0.820000 0.020000 0.000000 
 0.840000 0.020000 0.000000 
 0.860000 0.020000 0.000000 
 0.880000 0.020000 0.000000 
 0.900000 0.020000 0.000000 
 0.920000 0.020000 0.000000 
 0.940000 0.020000 0.000000 
 0.960000 0.020000 0.000000 
 0.980000 0.020000 0.000000 
 1.000000 0.020000 0.000000 
 0.000000 0.040000 0.000000 
 0.020000 0.040000 0.000000 
 0.040000 0.040000 0.000000 
 0.060000 0.040000 0.000000 
 0.080000 0.040000 0.000000 
 0.100000 0.040000 0.000000 
 0.120000 0.040000 0.000000 
 0.140000 0.040000 0.000000 
 0.160000 0.040000 0.000000 
 0.180000 0.040000 0.000000 
 0.200000 0.040000 0.000000 
 0.220000 0.040000 0.000000 
 0.240000 0.040000 0.000000 
 0.260000 0.040000 0.000000 
 0.280000 0.040000 0.000000 
 0.300000 0.040000 0.000000 
 0.320000 0.040000 0.000000 
 0.340000 0.040000 0.000000 
 0.360000 0.040000 0.000000 
 0.380000 0.040000 0.000000 
 0.400000 0.040000 0.000000 
 0.420000 0.040000 0.000000 
 0.440000 0.040000 0.000000 
 0.460000 0.040000 0.000000 
 0.480000 0.040000 0.000000 
 0.500000 0.040000 0.000000 
 0.520000 0.040000 0.000000 
 0.540000 0.040000 0.000000 
 0.560000 0.040000 0.000000 
 0.580000 0.040000 0.000000 
 0.600000 0.040000 0.000000 
 0.620000 0.040000 0.000000 
 0.640000 0.040000 0.000000 
 0.660000 0.040000 0.000000 
 0.680000 0.040000 0.000000 
 0.700000 0.040000 0.000000 
 0.720000 0.040000 0.000000 
 0.740000 0.040000 0.000000 
 0.760000 0.040000 0.000000 
 0.780000 0.040000 0.000000 
 0.800000 0.040000 0.000000 
 0.820000 0.040000 0.000000 
 0.840000 0.040000 0.000000 
 0.860000 0.040000 0.000000 
 0.880000 0.040000 0.000000 
 0.900000 0.040000 0.000000 
 0.920000 0.040000 0.000000 
 0.940000 0.040000 0.000000 
 0.960000 0.040000 0.000000 
 0.980000 0.040000 0.000000 
 1.000000 0.040000 0.000000 
 0.000000 0.060000 0.000000 
 0.020000 0.060000 0.000000 
 0.040000 0.060000 0.000000 
 0.060000 0.060000 0.000000 
 0.080000 0.060000 0.000000 
 0.100000 0.060000 0.000000 
 0.120000 0.060000 0.000000 
 0.140000 0.060000 0.000000 
 0.160000 0.060000 0.000000 
 0.180000 0.060000 0.000000 
 0.200000 0.060000 0.000000 
 0.220000 0.060000 0.000000 
 0.240000 0.060000 0.000000 
 0.260000 0.060000 0.000000 
 0.280000 0.060000 0.000000 
 0.300000 0.060000 0.000000 
 0.320000 0.060000 0.000000 
 0.340000 0.060000 0.000000 
 0.360000 0.060000 0.000000 
 0.380000 0.060000 0.000000 
 0.400000 0.060000 0.000000 
 0.420000 0.060000 0.000000 
 0.440000 0.060000 0.000000 
 0.460000 0.060000 0.000000 
 0.480000 0.060000 0.000000 
 0.500000 0.060000 0.000000 
 0.520000 0.060000 0.000000 
 0.540000 0.060000 0.000000 
 0.560000 0.060000 0.000000 
 0.580000 0.060000 0.000000 
 0.600000 0.060000 0.000000 
 0.620000 0.060000 0.000000 
 0.640000 0.060000 0.000000 
 0.660000 0.060000 0.000000 
 0.680000 0.060000 0.000000 
 0.700000 0.060000 0.000000 
 0.720000 0.060000 0.000000 
 0.740000 0.060000 0.000000 
 0.760000 0.060000 0.000000 
 0.780000 0.060000 0.000000 
 0.800000 0.060000 0.000000 
 0.820000 0.060000 0.000000 
 0.840000 0.060000 0.000000 
 0.860000 0.060000 0.000000 
 0.880000 0.060000 0.000000 
 0.900000 0.060000 0.000000 
 0.920000 0.060000 0.000000 
 0.940000 0.060000 0.000000 
 0.960000 0.060000 0.000000 
 0.980000 0.060000 0.000000 
 1.000000 0.060000 0.000000 
 0.000000 0.080000 0.000000 
 0.020000 0.080000 0.000000 
 0.040000 0.080000 0.000000 
 0.060000 0.080000 0.000000 
 0.080000 0.080000 0.000000 
 0.100000 0.080000 0.000000 
 0.120000 0.080000 0.000000 
 0.140000 0.080000 0.000000 
 0.160000 0.080000 0.000000 
 0.180000 0.080000 0.000000 
 0.200000 0.080000 0.000000 
 0.220000 0.080000 0.000000 
 0.240000 0.080000 0.000000 
 0.260000 0.080000 0.000000 
 0.280000 0.080000 0.000000 
 0.300000 0.080000 0.000000 
 0.320000 0.080000 0.000000 
 0.340000 0.080000 0.000000 
 0.360000 0.080000 0.000000 
 0.380000 0.080000 0.000000 
 0.400000 0.080000 0.000000 
 0.420000 0.080000 0.000000 
 0.440000 0.080000 0.000000 
 0.460000 0.080000 0.000000 
 0.480000 0.080000 0.000000 
 0.500000 0.080000 0.000000 
 0.520000 0.080000 0.000000 
 0.540000 0.080000 0.000000 
 0.560000 0.080000 0.000000 
 0.580000 0.080000 0.000000 
 0.600000 0.080000 0.000000 
 0.620000 0.080000 0.000000 
 0.640000 0.080000 0.000000 
 0.660000 0.080000 0.000000 
 0.680000 0.080000 0.000000 
 0.700000 0.080000 0.000000 
 0.720000 0.080000 0.000000 
 0.740000 0.080000 0.000000 
 0.760000 0.080000 0.000000 
 0.780000 0.080000 0.000000 
 0.800000 0.080000 0.000000 
 0.820000 0.080000 0.000000 
 0.840000 0.080000 0.000000 
 0.860000 0.080000 0.000000 
 0.880000 0.080000 0.000000 
 0.900000 0.080000 0.000000 
 0.920000 0.080000 0.000000 
 0.940000 0.080000 0.000000 
 0.960000 0.080000 0.000000 
 0.980000 0.080000 0.000000 
 1.000000 0.080000 0.000000 
 0.000000 0.100000 0.000000 
 0.020000 0.100000 0.000000 
 0.040000 0.100000 0.000000 
 0.060000 0.100000 0.000000 
 0.080000 0.100000 0.000000 
 0.100000 0.100000 0.000000 
 0.120000 0.100000 0.000000 
 0.140000 0.100000 0.000000 
 0.160000 0.100000 0.000000 
 0.180000 0.100000 0.000000 
 0.200000 0.100000 0.000000 
 0.220000 0.100000 0.000000 
 0.240000 0.100000 0.000000 
 0.260000 0.100000 0.000000 
 0.280000 0.100000 0.000000 
 0.300000 0.100000 0.000000 
 0.320000 0.100000 0.000000 
 0.340000 0.100000 0.000000 
 0.360000 0.100000 0.000000 
 0.380000 0.100000 0.000000 
 0.400000 0.100000 0.000000 
 0.420000 0.100000 0.000000 
 0.440000 0.100000 0.000000 
 0.460000 0.100000 0.000000 
 0.480000 0.100000 0.000000 
 0.500000 0.100000 0.000000 
 0.520000 0.100000 0.000000 
 0.540000 0.100000 0.000000 
 0.560000 0.100000 0.000000 
 0.580000 0.100000 0.000000 
 0.600000 0.100000 0.000000 
 0.620000 0.100000 0.000000 
 0.640000 0.100000 0.000000 
 0.660000 0.100000 0.000000 
 0.680000 0.100000 0.000000 
 0.700000 0.100000 0.000000 
 0.720000 0.100000 0.000000 
 0.740000 0.100000 0.000000 
 0.760000 0.100000 0.000000 
 0.780000 0.100000 0.000000 
 0.800000 0.100000 0.000000 
 0.820000 0.100000 0.000000 
 0.840000 0.100000 0.000000 
 0.860000 0.100000 0.000000 
 0.880000 0.100000 0.000000 
 0.900000 0.100000 0.000000 
 0.920000 0.100000 0.000000 
 0.940000 0.100000 0.000000 
 0.960000 0.100000 0.000000 
 0.980000 0.100000 0.000000 
 1.000000 0.100000 0.000000 
 0.000000 0.120000 0.000000 
 0.020000 0.120000 0.000000 
 0.040000 0.120000 0.000000 
 0.060000 0.120000 0.000000 
 0.080000 0.120000 0.000000 
 0.100000 0.120000 0.000000 
 0.120000 0.120000 0.000000 
 0.140000 0.120000 0.000000 
 0.160000 0.120000 0.000000 
 0.180000 0.120000 0.000000 
 0.200000 0.120000 0.000000 
 0.220000 0.120000 0.000000 
 0.240000 0.120000 0.000000 
 0.260000 0.120000 0.000000 
 0.280000 0.120000 0.000000 
 0.300000 0.120000 0.000000 
 0.320000 0.120000 0.000000 
 0.340000 0.120000 0.000000 
 0.360000 0.120000 0.000000 
 0.380000 0.120000 0.000000 
 0.400000 0.120000 0.000000 
 0.420000 0.120000 0.000000 
 0.440000 0.120000 0.000000 
 0.460000 0.120000 0.000000 
 0.480000 0.120000 0.000000 
 0.500000 0.120000 0.000000 
 0.520000 0.120000 0.000000 
 0.540000 0.120000 0.000000 
 0.560000 0.120000 0.000000 
 0.580000 0.120000 0.000000 
 0.600000 0.120000 0.000000 
[...]
<PointData  Scalars="U"> 
<DataArray  type="Float64"  Name="U"  format="ascii"> 
 0.000000e+00
 0.000000e+00
 0.000000e+00
 0.000000e+00
 0.000000e+00
 0.000000e+00
 0.000000e+00
 0.000000e+00
 0.000000e+00
 0.000000e+00
 0.000000e+00
 0.000000e+00
 0.000000e+00
 0.000000e+00
 0.000000e+00
 0.000000e+00
 0.000000e+00
 0.000000e+00
 0.000000e+00
 0.000000e+00
 0.000000e+00
 0.000000e+00
 0.000000e+00
 0.000000e+00
 0.000000e+00
 0.000000e+00
 0.000000e+00
 0.000000e+00
 0.000000e+00
 0.000000e+00
 0.000000e+00
 0.000000e+00
 0.000000e+00
 0.000000e+00
 0.000000e+00
 0.000000e+00
 0.000000e+00
 0.000000e+00
 0.000000e+00
 0.000000e+00
 0.000000e+00
 0.000000e+00
 0.000000e+00
 0.000000e+00
 0.000000e+00
 0.000000e+00
 0.000000e+00
 0.000000e+00
 0.000000e+00
 0.000000e+00
 0.000000e+00
 0.000000e+00
 1.814671e-09
 3.573420e-09
 5.199956e-09
 6.595831e-09
 7.659493e-09
 8.310162e-09
 8.494797e-09
 8.164258e-09
 7.215547e-09
 5.401233e-09
 2.207482e-09
 -3.279833e-09
 -1.240300e-08
 -2.640376e-08
 -4.416135e-08
 -5.744479e-08
 -5.056659e-08
 -1.768095e-08
 2.203924e-08
 4.669077e-08
 5.232831e-08
 4.411902e-08
 2.843232e-08
 1.083697e-08
 -5.005931e-09
 -1.739098e-08
 -2.657096e-08
 -3.514090e-08
 -4.673160e-08
 -6.226845e-08
 -7.746540e-08
 -8.364955e-08
 -7.063380e-08
 -3.764329e-08
 -2.489435e-09
 1.778982e-08
 2.267096e-08
 1.857758e-08
 1.265078e-08
 1.057777e-08
 1.365442e-08
 1.915135e-08
 2.365180e-08
 2.550677e-08
 2.494061e-08
 2.275550e-08
 1.922732e-08
 1.407426e-08
 6.949725e-09
 0.000000e+00
 0.000000e+00
 3.681265e-09
 7.274684e-09
 1.062989e-08
 1.352785e-08
 1.573752e-08
 1.708797e-08
 1.749669e-08
 1.692353e-08
 1.525297e-08
 1.211356e-08
 6.625335e-09
 -2.950859e-09
 -1.963646e-08
 -4.782900e-08
 -9.086531e-08
 -1.365426e-07
 -1.329484e-07
 -4.249260e-08
 6.340924e-08
 1.136011e-07
 1.185314e-07
 9.560017e-08
 5.840582e-08
 1.959899e-08
 -1.376786e-08
 -3.843014e-08
 -5.402355e-08
 -6.676737e-08
 -8.851476e-08
 -1.241682e-07
 -1.633932e-07
 -1.878950e-07
 -1.656209e-07
 -7.712593e-08
 1.375178e-08
 5.174397e-08
 5.434262e-08
 3.883517e-08
 2.058125e-08
 1.523414e-08
 2.481678e-08
 3.967066e-08
 5.030267e-08
 5.352213e-08
 5.137465e-08
 4.674244e-08
 4.009392e-08
 3.010913e-08
 1.624655e-08
 0.000000e+00
 0.000000e+00
 5.623443e-09
 1.120068e-08
 1.651459e-08
 2.115959e-08
 2.469172e-08
 2.681659e-08
 2.746953e-08
 2.673945e-08
 2.467731e-08
 2.103466e-08
 1.491409e-08
 4.213549e-09
 -1.542610e-08
 -5.282342e-08
 -1.256737e-07
 -2.638077e-07
 -3.301856e-07
 -8.088501e-08
 1.812815e-07
 2.223432e-07
 2.124743e-07
 1.614604e-07
 8.870181e-08
 2.236681e-08
 -3.151533e-08
 -6.976047e-08
 -8.573906e-08
 -8.814859e-08
 -1.129946e-07
 -1.820901e-07
 -2.611073e-07
 -3.373117e-07
 -3.487928e-07
 -1.160234e-07
 1.015408e-07
 1.162349e-07
 1.046805e-07
 6.252775e-08
 1.258432e-08
 2.724312e-09
 3.099274e-08
 6.567426e-08
 8.533403e-08
 8.700660e-08
 7.975335e-08
 7.239001e-08
 6.447110e-08
 5.045874e-08
 2.804065e-08
 0.000000e+00
 0.000000e+00
 7.578312e-09
 1.535315e-08
 2.306066e-08
 2.993272e-08
 3.509629e-08
 3.804593e-08
 3.882069e-08
 3.783951e-08
 3.557905e-08
 3.224512e-08
 2.743546e-08
 1.963799e-08
 5.146135e-09
 -2.497926e-08
 -9.548079e-08
 -2.922133e-07
 -1.418399e-06
 -2.149691e-07
 6.623678e-07
 3.005486e-07
 3.709344e-07
 2.466579e-07
 1.075991e-07
 1.285081e-08
 -6.344600e-08
 -1.258961e-07
 -1.376494e-07
 -8.535945e-08
 -7.934208e-08
 -2.312148e-07
 -3.926116e-07
 -3.772421e-07
 -1.324460e-06
 -2.265951e-07
 5.264186e-07
 1.212655e-07
 2.132626e-07
 9.629318e-08
 -4.720400e-08
 -5.319334e-08
 3.382077e-08
 1.099989e-07
 1.405597e-07
 1.293160e-07
 1.061928e-07
 9.763026e-08
 9.575035e-08
 8.016796e-08
 4.592868e-08
 0.000000e+00
 0.000000e+00
 9.246204e-09
 1.947436e-08
 3.042276e-08
 4.048572e-08
 4.781623e-08
 5.151752e-08
 5.193675e-08
 5.017333e-08
 4.745661e-08
 4.475941e-08
 4.262005e-08
 4.103249e-08
 3.934132e-08
 3.620425e-08
 2.998847e-08
 2.232220e-08
 -6.360068e-08
 1.722493e-05
 -1.305596e-06
 3.590849e-08
 9.232632e-07
 2.672009e-07
 7.993971e-08
 -1.164770e-08
 -9.959868e-08
 -2.332413e-07
 -2.846808e-07
 -3.513638e-08
 1.373312e-07
 -1.125159e-07
 -1.321287e-06
 -1.235754e-07
 5.981786e-07
 1.717219e-05
 -1.581981e-06
 -3.009486e-07
 7.478667e-07
 1.070146e-07
 -2.816716e-07
 -2.123971e-07
 6.645187e-08
 2.034133e-07
 2.433276e-07
 1.831926e-07
 1.100992e-07
 1.140710e-07
 1.446651e-07
 1.303496e-07
 7.623269e-08
 0.000000e+00
 0.000000e+00
 9.687319e-09
 2.261096e-08
 3.862858e-08
 5.396119e-08
 6.439719e-08
 6.839799e-08
 6.724851e-08
 6.341148e-08
 5.924084e-08
 5.662559e-08
 5.714345e-08
 6.240907e-08
 7.489101e-08
 1.006631e-07
 1.594741e-07
 3.262200e-07
 9.659388e-07
 6.311653e-08
 -1.293787e-06
 1.722171e-05
 -8.105317e-08
 -8.950448e-09
 -1.710345e-08
 -3.595941e-08
 -8.893325e-08
 -2.538960e-07
 -1.318511e-06
 3.020003e-09
 9.181974e-07
 2.953658e-07
 1.159911e-07
 1.760487e-05
 6.115125e-07
 -3.801095e-07
 -1.674389e-06
 1.595276e-05
 -2.105714e-07
 3.853211e-07
 -1.606434e-06
 -6.924383e-07
 3.819465e-07
 3.375365e-07
 4.826786e-07
 2.503245e-07
 2.152130e-09
 1.022789e-07
 2.586303e-07
 2.180205e-07
 1.303380e-07
 0.000000e+00
 0.000000e+00
 6.229255e-09
 2.192633e-08
 4.745469e-08
 7.288679e-08
 8.793692e-08
 9.060445e-08
 8.519928e-08
 7.689282e-08
 6.941504e-08
 6.535626e-08
 6.702026e-08
 7.702101e-08
 9.884789e-08
 1.385170e-07
 2.087392e-07
 3.299955e-07
 4.383497e-07
 3.518539e-07
 6.974380e-07
 -1.951175e-07
 -1.411350e-06
 -2.944160e-07
 -1.027080e-07
 -3.249364e-08
 3.890849e-09
 4.097055e-08
 3.466036e-08
 1.752745e-05
 1.384295e-07
 3.542326e-07
 1.015889e-06
 1.556825e-07
 -1.233915e-06
 -1.330122e-06
 4.987740e-07
 5.133368e-07
 1.608080e-05
 -5.311344e-07
 -7.094030e-07
 1.536728e-05
 -1.979057e-06
 5.173312e-07
 1.245196e-06
 4.440967e-07
 -1.040612e-06
 -5.334618e-08
 7.120630e-07
 2.734209e-07
 2.564943e-07
 0.000000e+00
 0.000000e+00
 -8.438594e-09
 9.273906e-09
 5.637406e-08
 1.039846e-07
 1.249863e-07
 1.208958e-07
 1.057373e-07
 8.934818e-08
 7.613378e-08
 6.842085e-08
 6.868011e-08
 8.014631e-08
 1.060116e-07
 1.479768e-07
 2.050549e-07
 2.677574e-07
 3.051765e-07
 2.980419e-07
 2.386315e-07
 -4.043188e-08
 -3.022761e-07
 -2.412187e-07
 -9.764340e-08
 -1.405808e-09
 9.853692e-08
 2.967559e-07
 9.693402e-07
 1.036686e-07
 -1.139184e-06
 5.709324e-08
 3.292052e-07
 2.066679e-07
 1.624693e-08
 7.699524e-08
 1.776389e-05
 7.349817e-07
 -3.480987e-07
 -1.484596e-06
 2.872764e-07
 -6.309637e-07
 1.433024e-05
 1.568418e-05
 6.670147e-07
 1.020732e-06
 1.608603e-07
 1.726604e-05
 -1.314301e-06
 -2.693854e-09
 8.248808e-07
 0.000000e+00
 0.000000e+00
 -5.318725e-08
 -3.996185e-08
 6.538163e-08
 1.682506e-07
 1.889284e-07
 1.610009e-07
 1.265347e-07
 9.833528e-08
 7.741794e-08
 6.368330e-08
 5.914992e-08
 6.859224e-08
 9.668818e-08
 1.414651e-07
 1.910669e-07
 2.289597e-07
 2.402462e-07
 2.151405e-07
 1.415944e-07
 1.418441e-08
 -9.134217e-08
 -9.946721e-08
 -4.376227e-08
 2.988790e-08
 1.213121e-07
 2.501614e-07
 3.392180e-07
 1.376789e-07
 -8.673499e-08
 1.380559e-08
 1.753769e-07
 2.402766e-07
 3.770297e-07
 1.051990e-06
 2.233415e-07
 -1.093834e-06
 -2.777736e-07
 -2.306422e-07
 1.715160e-07
 9.204808e-07
 4.432130e-07
 1.573033e-05
 1.566115e-05
 -2.964839e-07
 6.469492e-07
 -1.161513e-07
 -1.372572e-06
 1.719872e-05
 -8.076598e-08
 0.000000e+00
 0.000000e+00
 -1.668955e-07
 -2.118353e-07
 8.119092e-08
 3.427944e-07
 2.981043e-07
 2.015251e-07
 1.396542e-07
 1.000151e-07
 7.191630e-08
 5.029993e-08
 3.578127e-08
 3.718358e-08
 6.869997e-08
 1.293811e-07
 1.890838e-07
 2.179680e-07
 2.117253e-07
 1.771484e-07
 1.191529e-07
 4.869185e-08
 -5.868841e-09
 -2.017364e-08
 2.431248e-09
 4.671865e-08
 1.029823e-07
 1.578999e-07
 1.716247e-07
 1.108159e-07
 5.059303e-08
 7.548112e-08
 1.506324e-07
 2.326163e-07
 3.426836e-07
 4.195274e-07
 1.960651e-07
 -1.037697e-07
 -1.289956e-07
 4.196755e-09
 2.569366e-07
 6.054759e-07
 1.178192e-06
 4.019048e-07
 -1.997255e-06
 -1.964900e-06
 -3.826924e-07
 -1.168299e-08
 5.981796e-07
 -1.689008e-07
 -1.301203e-06
 0.000000e+00
 0.000000e+00
 -2.328031e-07
 -1.306645e-06
 4.648331e-08
 9.975453e-07
 3.747297e-07
 2.033794e-07
 1.317543e-07
 9.105172e-08
 6.076580e-08
 3.126057e-08
 -1.900875e-09
 -2.684087e-08
 4.803848e-09
 1.185560e-07
 2.238441e-07
 2.436544e-07
 2.105091e-07
 1.632656e-07
 1.134807e-07
 6.680590e-08
 3.300659e-08
 2.036960e-08
 2.876577e-08
 5.164064e-08
 8.028888e-08
 1.030787e-07
 1.057900e-07
 8.667875e-08
 7.174416e-08
 8.847257e-08
 1.352218e-07
 1.953097e-07
 2.490884e-07
 2.530491e-07
 1.659392e-07
 5.661088e-08
 2.704752e-08
 8.915026e-08
 2.173489e-07
 3.655926e-07
 3.926306e-07
 7.879905e-09
 -6.354962e-07
 -9.041353e-07
 -6.483297e-07
 -9.189128e-08
 2.771804e-07
 7.680943e-08
 -1.585672e-07
 0.000000e+00
 0.000000e+00
 -3.900594e-08
 -6.070621e-08
 1.749392e-05
 1.287132e-07
 1.734780e-07
 1.315331e-07
 9.818267e-08
 7.293975e-08
 4.938135e-08
 1.762137e-08
 -3.901245e-08
 -1.478764e-07
 -1.711268e-07
 1.202353e-07
 3.714058e-07
 3.184983e-07
 2.175951e-07
 1.516059e-07
 1.058613e-07
 7.182585e-08
 4.895258e-08
 3.875076e-08
 4.047906e-08
 5.033743e-08
 6.247729e-08
 7.010589e-08
 6.815042e-08
 5.884878e-08
 5.441125e-08
 6.911504e-08
 1.075664e-07
 1.592990e-07
 2.004088e-07
 2.045215e-07
 1.655181e-07
 1.135326e-07
 8.863172e-08
 1.054017e-07
 1.504533e-07
 1.833725e-07
 1.309580e-07
 -6.863269e-08
 -3.492564e-07
 -6.072298e-07
 -1.596347e-06
 -1.491852e-07
 8.377703e-07
 1.899047e-07
 9.640460e-09
 0.000000e+00
 0.000000e+00
 5.235300e-08
 6.578182e-07
 2.883850e-08
 -1.043687e-06
 -2.746839e-08
 4.895845e-08
 5.565289e-08
 5.274370e-08
 4.518434e-08
 2.652597e-08
 -2.424368e-08
 -1.855961e-07
 -1.245883e-06
 7.956119e-08
 9.950229e-07
 3.559411e-07
 1.862036e-07
 1.217742e-07
 8.794029e-08
 6.596930e-08
 5.173313e-08
 4.464144e-08
 4.373908e-08
 4.655733e-08
 4.933755e-08
 4.799027e-08
 3.991473e-08
 2.662312e-08
 1.607259e-08
 2.332822e-08
 6.414866e-08
 1.330790e-07
 1.920651e-07
 2.068432e-07
 1.800598e-07
 1.376470e-07
 1.039742e-07
 8.940252e-08
 8.911136e-08
 8.398209e-08
 4.441588e-08
 -4.544068e-08
 -1.507673e-07
 -1.949272e-07
 -1.980064e-07
 1.734169e-05
 -4.610312e-08
 8.277437e-09
 -4.406919e-09
 0.000000e+00
 0.000000e+00
 -7.238773e-08
 -1.077932e-06
 3.626707e-09
 6.399939e-07
 4.159571e-08
 2.344567e-09
 1.766373e-08
 3.604619e-08
 5.035354e-08
 6.106119e-08
 7.130412e-08
 9.143399e-08
 6.652403e-08
 1.752776e-05
 6.921571e-08
 9.613709e-08
 7.715803e-08
 6.795651e-08
 6.004383e-08
 5.282309e-08
 4.723877e-08
 4.405463e-08
 4.304793e-08
 4.273570e-08
 4.054326e-08
 3.329932e-08
 1.800443e-08
 -7.032312e-09
 -3.931888e-08
 -5.965456e-08
 -1.482127e-08
 1.176044e-07
 2.359581e-07
 2.547198e-07
 2.095138e-07
 1.503333e-07
 9.767651e-08
 5.678578e-08
 3.019695e-08
 2.052805e-08
 1.832237e-08
 1.762844e-09
 -1.595274e-08
 8.106227e-08
 7.294425e-07
 -7.087626e-08
 -1.280383e-06
 -1.879898e-07
 -4.043120e-08
 0.000000e+00
 0.000000e+00
 7.131201e-08
 4.482816e-08
 1.741998e-05
 -1.299607e-07
 -1.077736e-07
 -7.178267e-08
 -1.926043e-08
 2.422230e-08
 5.941397e-08
 9.675598e-08
 1.611108e-07
 3.309473e-07
 9.716452e-07
 5.907913e-08
 -1.263113e-06
 -2.001618e-07
 -3.731771e-08
 1.368929e-08
 3.164276e-08
 3.799322e-08
 4.016509e-08
 4.106774e-08
 4.147179e-08
 4.068734e-08
 3.682206e-08
 2.685185e-08
 6.352818e-09
 -3.151489e-08
 -9.816153e-08
 -2.097107e-07
 -2.130606e-07
 1.207263e-07
 4.091664e-07
 3.642911e-07
 2.466805e-07
 1.543205e-07
 7.932072e-08
 1.050414e-08
 -4.781114e-08
 -5.440596e-08
 1.246314e-08
 6.563220e-08
 3.890054e-08
 -2.815254e-08
 -3.052146e-08
 1.027385e-08
 -1.365278e-08
 -2.675300e-08
 -5.140363e-09
 0.000000e+00
 0.000000e+00
 2.271881e-07
 8.723249e-07
 -7.128411e-08
 -1.423559e-06
 -3.543966e-07
 -1.494068e-07
 -4.413140e-08
 2.191950e-08
 6.808331e-08
 1.115920e-07
 1.726666e-07
 2.714335e-07
 3.259562e-07
 7.891808e-08
 -2.076212e-07
 -1.804485e-07
 -6.968765e-08
 -1.399075e-08
 1.310831e-08
 2.672785e-08
 3.403832e-08
 3.834405e-08
 4.088748e-08
 4.153939e-08
 3.899242e-08
 3.056725e-08
 1.133118e-08
 -2.846822e-08
 -1.110775e-07
 -3.015878e-07
 -1.339138e-06
 8.753418e-08
 1.094217e-06
 4.627005e-07
 2.530641e-07
 1.410993e-07
 5.641947e-08
 -3.748634e-08
 -1.774462e-07
 -2.314461e-07
 2.587164e-08
 2.367371e-07
 1.249483e-07
 -1.274521e-07
 -1.249446e-06
 -8.301105e-09
 8.326035e-07
 1.844808e-07
 4.235964e-08
 0.000000e+00
 0.000000e+00
 1.335959e-07
 1.900018e-07
 -7.466155e-08
 -3.735671e-07
 -3.252370e-07
 -1.553813e-07
 -3.309653e-08
 3.969060e-08
 7.987370e-08
 1.098006e-07
 1.422154e-07
 1.704219e-07
 1.537297e-07
 5.576938e-08
 -4.996781e-08
 -7.533461e-08
 -4.735140e-08
 -1.551238e-08
 6.821103e-09
 2.119217e-08
 3.059992e-08
 3.716565e-08
 4.200746e-08
 4.537818e-08
 4.670482e-08
 4.439701e-08
 3.517538e-08
 1.238081e-08
 -3.720933e-08
 -1.309983e-07
 -1.862921e-07
 1.755751e-05
 3.409295e-07
 3.071469e-07
 1.823586e-07
 1.041686e-07
 4.173567e-08
 -3.928134e-08
 -2.237564e-07
 -1.303741e-06
 2.401937e-09
 8.959896e-07
 2.312089e-07
 4.791823e-08
 -3.636806e-08
 1.745828e-05
 4.101332e-08
 6.277599e-08
 2.345199e-08
 0.000000e+00
 0.000000e+00
 3.195483e-08
 3.013491e-09
 -1.249142e-07
 -2.592884e-07
 -2.564283e-07
 -1.133916e-07
 3.185846e-08
 9.080255e-08
 1.000049e-07
 1.028426e-07
 1.091618e-07
 1.102370e-07
 9.019203e-08
 4.464734e-08
 -2.448501e-09
 -2.393326e-08
 -2.013071e-08
 -5.993999e-09
 8.522603e-09
 2.043618e-08
 2.983388e-08
 3.757022e-08
 4.446670e-08
 5.110344e-08
 5.779662e-08
 6.462932e-08
 7.151302e-08
 7.829105e-08
 8.469396e-08
 8.758266e-08
 -3.377524e-07
 6.879750e-08
 -3.442662e-07
 7.444679e-08
 6.484897e-08
 5.201034e-08
 4.022390e-08
 3.296767e-08
 4.133351e-08
 1.070925e-08
 1.747046e-05
 1.106273e-08
 3.953928e-08
 7.024948e-08
 6.594366e-07
 6.725786e-09
 -1.089300e-06
 -8.673738e-08
 -1.231152e-08
 0.000000e+00
 0.000000e+00
 -1.054959e-08
 -5.514419e-08
 -1.557076e-07
 -3.129985e-07
 -3.585301e-07
 -6.083077e-08
 2.121597e-07
 1.877939e-07
 1.197230e-07
 8.984481e-08
 7.979223e-08
 7.281889e-08
 5.862386e-08
 3.587874e-08
 1.299444e-08
 -2.463337e-10
 -1.699806e-09
 4.392909e-09
 1.326045e-08
 2.228441e-08
 3.070996e-08
 3.877035e-08
 4.714067e-08
 5.673273e-08
 6.871885e-08
 8.479876e-08
 1.079657e-07
 1.444381e-07
 2.077856e-07
 3.222588e-07
 3.478940e-07
 1.755758e-05
 -1.922271e-07
 -1.420204e-07
 -5.162910e-08
 -1.062170e-09
 3.502446e-08
 9.370037e-08
 2.624440e-07
 9.132006e-07
 2.142820e-08
 -1.278721e-06
 -2.095087e-07
 -1.197840e-07
 -1.088783e-06
 -4.979130e-09
 6.249100e-07
 2.093863e-08
 -1.920087e-08
 0.000000e+00
 0.000000e+00
 -1.715030e-08
 -5.264673e-08
 -1.292121e-07
 -3.161555e-07
 -1.390688e-06
 -6.465273e-08
 8.629678e-07
 2.432792e-07
 9.718834e-08
 5.820740e-08
 4.828048e-08
 4.413367e-08
 3.759661e-08
 2.751416e-08
 1.711539e-08
 1.046331e-08
 9.238413e-09
 1.245073e-08
 1.815838e-08
 2.488291e-08
 3.201526e-08
 3.969427e-08
 4.863063e-08
 6.004387e-08
 7.573337e-08
 9.835448e-08
 1.322588e-07
 1.860039e-07
 2.801122e-07
 4.778213e-07
 1.100455e-06
 8.683557e-08
 -1.345307e-06
 -3.119144e-07
 -1.237220e-07
 -3.930237e-08
 1.299243e-08
 7.139535e-08
 1.721318e-07
 2.523422e-07
 5.906211e-08
 -1.682096e-07
 -9.590859e-08
 4.955518e-08
 4.853366e-08
 1.743165e-05
 -1.162662e-07
 -9.501054e-08
 -5.919449e-08
 0.000000e+00
 0.000000e+00
 -5.428631e-09
 -1.336193e-08
 -2.177482e-08
 -1.759833e-08
 -5.177656e-08
 1.740880e-05
 -4.256108e-08
 -2.638594e-09
 -4.983694e-09
 3.863286e-09
 1.290885e-08
 1.891411e-08
 2.090798e-08
 1.960181e-08
 1.698684e-08
 1.523861e-08
 1.560049e-08
 1.812416e-08
 2.219796e-08
 2.719804e-08
 3.286545e-08
 3.944213e-08
 4.773583e-08
 5.920872e-08
 7.606033e-08
 1.012171e-07
 1.383124e-07
 1.921763e-07
 2.700720e-07
 3.766401e-07
 4.128113e-07
 1.178300e-07
 -2.206782e-07
 -2.209234e-07
 -1.125297e-07
 -4.893204e-08
 -1.401783e-08
 3.743947e-09
 1.418230e-08
 3.053554e-08
 4.906947e-08
 6.437295e-08
 1.129315e-07
 2.768872e-07
 9.042175e-07
 -3.467859e-08
 -1.377775e-06
 -3.083720e-07
 -1.099027e-07
 0.000000e+00
 0.000000e+00
 9.561283e-09
 2.787791e-08
 7.745152e-08
 2.363112e-07
 8.707311e-07
 -4.267055e-08
 -1.360418e-06
 -2.886799e-07
 -1.140615e-07
 -4.988664e-08
 -1.912526e-08
 -2.007834e-09
 7.759734e-09
 1.303053e-08
 1.580634e-08
 1.768015e-08
 1.968888e-08
 2.225539e-08
 2.537924e-08
 2.893080e-08
 3.289938e-08
 3.758177e-08
 4.378800e-08
 5.311881e-08
 6.818696e-08
 9.230465e-08
 1.280364e-07
 1.748304e-07
 2.262438e-07
 2.620956e-07
 2.347895e-07
 1.106163e-07
 -2.501127e-08
 -7.212192e-08
 -5.545196e-08
 -3.113805e-08
 -2.450739e-08
 -5.449933e-08
 -1.539799e-07
 -1.953178e-07
 5.239190e-08
 2.671246e-07
 2.282498e-07
 2.157545e-07
 2.270337e-07
 -1.704762e-08
 -2.837225e-07
 -2.362607e-07
 -9.912916e-08
 0.000000e+00
 0.000000e+00
 1.759139e-08
 4.442495e-08
 9.486692e-08
 1.864411e-07
 2.368063e-07
 -1.103280e-08
 -2.948586e-07
 -2.617330e-07
 -1.424587e-07
 -7.668578e-08
 -3.916229e-08
 -1.600523e-08
 -9.845992e-10
 8.899682e-09
 1.543015e-08
 1.987599e-08
 2.314625e-08
 2.580978e-08
 2.815476e-08
 3.029723e-08
 3.230228e-08
 3.432906e-08
 3.689762e-08
 4.144399e-08
 5.117169e-08
 7.124750e-08
 1.057968e-07
 1.511095e-07
 1.921632e-07
 2.083046e-07
 1.829545e-07
 1.191053e-07
 5.038366e-08
 1.096336e-08
 2.079038e-09
 4.695626e-09
 -1.509434e-09
 -4.499680e-08
 -2.096811e-07
 -1.287617e-06
 8.082962e-09
 8.913757e-07
 2.268468e-07
 4.173035e-08
 -2.450966e-08
 -5.692326e-08
 -8.305650e-08
 -8.458556e-08
 -5.124302e-08
 0.000000e+00
 0.000000e+00
 1.727230e-08
 3.891568e-08
 6.720630e-08
 9.213832e-08
 7.294164e-08
 -2.597710e-08
 -1.304445e-07
 -1.519991e-07
 -1.177511e-07
 -7.768252e-08
 -4.601711e-08
 -2.233533e-08
 -4.761763e-09
 8.050974e-09
 1.708111e-08
 2.318882e-08
 2.716203e-08
 2.965395e-08
 3.112407e-08
 3.181379e-08
 3.173538e-08
 3.067508e-08
 2.833135e-08
 2.500723e-08
 2.379205e-08
 3.432112e-08
 7.055771e-08
 1.306748e-07
 1.834907e-07
 1.990696e-07
 1.764361e-07
 1.327659e-07
 8.901031e-08
 6.014222e-08
 4.878807e-08
 4.871815e-08
 5.248498e-08
 5.602492e-08
 6.472602e-08
 2.097191e-08
 1.745497e-05
 -4.228842e-08
 -8.050019e-08
 -2.270766e-07
 -3.042368e-07
 -9.223935e-08
 8.987286e-08
 2.585164e-08
 -1.989814e-08
 0.000000e+00
 0.000000e+00
 1.241975e-08
 2.531369e-08
 3.656667e-08
 3.799583e-08
 1.618711e-08
 -3.118984e-08
 -7.877468e-08
 -9.849669e-08
 -9.018895e-08
 -6.878986e-08
 -4.486506e-08
 -2.268048e-08
 -3.836400e-09
 1.097221e-08
 2.164537e-08
 2.861310e-08
 3.262562e-08
 3.448326e-08
 3.483570e-08
 3.405834e-08
 3.212306e-08
 2.836599e-08
 2.113165e-08
 7.641564e-09
 -1.389210e-08
 -3.092393e-08
 4.652788e-09
 1.179393e-07
 2.184946e-07
 2.308513e-07
 1.914494e-07
 1.455027e-07
 1.103130e-07
 9.021561e-08
 8.415926e-08
 8.949203e-08
 1.077914e-07
 1.564084e-07
 3.094072e-07
 9.305003e-07
 -5.374928e-09
 -1.360335e-06
 -3.640481e-07
 -3.898426e-07
 -1.448423e-06
 -1.773743e-07
 6.725151e-07
 2.405694e-08
 -5.896718e-08
 0.000000e+00
 0.000000e+00
 6.711988e-09
 1.228749e-08
 1.432489e-08
 8.629138e-09
 -8.641138e-09
 -3.547403e-08
 -6.149803e-08
 -7.552708e-08
 -7.428081e-08
 -6.129643e-08
 -4.161623e-08
 -1.957216e-08
 1.221315e-09
 1.812341e-08
 2.997008e-08
 3.699830e-08
 4.021639e-08
 4.077217e-08
 3.961301e-08
 3.735941e-08
 3.416638e-08
 2.930868e-08
 2.013274e-08
 -2.446061e-10
 -4.743356e-08
 -1.492301e-07
 -1.688016e-07
 1.222043e-07
 3.694323e-07
 3.110900e-07
 2.072517e-07
 1.458960e-07
 1.156580e-07
 1.059105e-07
 1.087557e-07
 1.194088e-07
 1.395013e-07
 1.801298e-07
 2.580420e-07
 2.923110e-07
 2.967003e-08
 -2.643975e-07
 -2.397501e-07
 -1.321537e-07
 -1.522275e-07
 1.724440e-05
 -3.525919e-07
 -3.969026e-07
 -2.062320e-07
 0.000000e+00
 0.000000e+00
 1.917752e-09
 2.426104e-09
 -2.611544e-10
 -8.126478e-09
 -2.212229e-08
 -4.038200e-08
 -5.792665e-08
 -6.908233e-08
 -7.021985e-08
 -6.031800e-08
 -4.063516e-08
 -1.506094e-08
 1.043864e-08
 3.058157e-08
 4.323989e-08
 4.920679e-08