<VTKFile type="UnstructuredGrid"  version="0.1"   >
<UnstructuredGrid>  
<Piece  NumberOfPoints="     2601"  NumberOfCells="     5000">  
<Points>  
<DataArray  type="Float64"  NumberOfComponents="3"  format="ascii">  
 0.000000 0.000000 0.000000 
 0.020000 0.000000 0.000000 
 0.040000 0.000000 0.000000 
 0.060000 0.000000 0.000000 
 0.080000 0.000000 0.000000 
 0.100000 0.000000 0.000000 
 0.120000 0.000000 0.000000 
 0.140000 0.000000 0.000000 
 0.160000 0.000000 0.000000 
 0.180000 0.000000 0.000000 
 0.200000 0.000000 0.000000 
 0.220000 0.000000 0.000000 
 0.240000 0.000000 0.000000 
 0.260000 0.000000 0.000000 
 0.280000 0.000000 0.000000 
 0.300000 0.000000 0.000000 
 0.320000 0.000000 0.000000 
 0.340000 0.000000 0.000000 
 0.360000 0.000000 0.000000 
 0.380000 0.000000 0.000000 
 0.400000 0.000000 0.000000 
 0.420000 0.000000 0.000000 
 0.440000 0.000000 0.000000 
 0.460000 0.000000 0.000000 
 0.480000 0.000000 0.000000 
 0.500000 0.000000 0.000000 
 0.520000 0.000000 0.000000 
 0.540000 0.000000 0.000000 
 0.560000 0.000000 0.000000 
 0.580000 0.000000 0.000000 
 0.600000 0.000000 0.000000 
 0.620000 0.000000 0.000000 
 0.640000 0.000000 0.000000 
 0.660000 0.000000 0.000000 
 0.680000 0.000000 0.000000 
 0.700000 0.000000 0.000000 
 0.720000 0.000000 0.000000 
 0.740000 0.000000 0.000000 
 0.760000 0.000000 0.000000 
 0.780000 0.000000 0.000000 
 0.800000 0.000000 0.000000 
 0.820000 0.000000 0.000000 
 0.840000 0.000000 0.000000 
 0.860000 0.000000 0.000000 
 0.880000 0.000000 0.000000 
 0.900000 0.000000 0.000000 
 0.920000 0.000000 0.000000 
 0.940000 0.000000 0.000000 
 0.960000 0.000000 0.000000 
 0.980000 0.000000 0.000000 
 1.000000 0.000000 0.000000 
 0.000000 0.020000 0.000000 
 0.020000 0.020000 0.000000 
 0.040000 0.020000 0.000000 
 0.060000 0.020000 0.000000 
 0.080000 0.020000 0.000000 
 0.100000 0.020000 0.000000 
 0.120000 0.020000 0.000000 
 0.140000 0.020000 0.000000 
 0.160000 0.020000 0.000000 
 0.180000 0.020000 0.000000 
 0.200000 0.020000 0.000000 
 0.220000 0.020000 0.000000 
 0.240000 0.020000 0.000000 
 0.260000 0.020000 0.000000 
 0.280000 0.020000 0.000000 
 0.300000 0.020000 0.000000 
 0.320000 0.020000 0.000000 
 0.340000 0.020000 0.000000 
 0.360000 0.020000 0.000000 
 0.380000 0.020000 0.000000 
 0.400000 0.020000 0.000000 
 0.420000 0.020000 0.000000 
 0.440000 0.020000 0.000000 
 0.460000 0.020000 0.000000 
 0.480000 0.020000 0.000000 
 0.500000 0.020000 0.000000 
 0.520000 0.020000 0.000000 
 0.540000 0.020000 0.000000 
 0.560000 0.020000 0.000000 
 0.580000 0.020000 0.000000 
 0.600000 0.020000 0.000000 
 0.620000 0.020000 0.000000 
 0.640000 0.020000 0.000000 
 0.660000 0.020000 0.000000 
 0.680000 0.020000 0.000000 
 0.700000 0.020000 0.000000 
 0.720000 0.020000 0.000000 
 0.740000 0.020000 0.000000 
 0.760000 0.020000 0.000000 
 0.780000 0.020000 0.000000 
 0.800000 0.020000 0.000000 
 0.820000 0.020000 0.000000 
 0.840000 0.020000 0.000000 
 0.860000 0.020000 0.000000 
 0.880000 0.020000 0.000000 
 0.900000 0.020000 0.000000 
 0.920000 0.020000 0.000000 
 0.940000 0.020000 0.000000 
 0.960000 0.020000 0.000000 
 0.980000 0.020000 0.000000 
 1.000000 0.020000 0.000000 
 0.000000 0.040000 0.000000 
 0.020000 0.040000 0.000000 
 0.040000 0.040000 0.000000 
 0.060000 0.040000 0.000000 
 0.080000 0.040000 0.000000 
 0.100000 0.040000 0.000000 
 0.120000 0.040000 0.000000 
 0.140000 0.040000 0.000000 
 0.160000 0.040000 0.000000 
 0.180000 0.040000 0.000000 
 0.200000 0.040000 0.000000 
 0.220000 0.040000 0.000000 
 0.240000 0.040000 0.000000 
 0.260000 0.040000 0.000000 
 0.280000 0.040000 0.000000 
 0.300000 0.040000 0.000000 
 0.320000 0.040000 0.000000 
 0.340000 0.040000 0.000000 
 0.360000 0.040000 0.000000 
 0.380000 0.040000 0.000000 
 0.400000 0.040000 0.000000 
 0.420000 0.040000 0.000000 
 0.440000 0.040000 0.000000 
 0.460000 0.040000 0.000000 
 0.480000 0.040000 0.000000 
 0.500000 0.040000 0.000000 
 0.520000 0.040000 0.000000 
 0.540000 0.040000 0.000000 
 0.560000 0.040000 0.000000 
 0.580000 0.040000 0.000000 
 0.600000 0.040000 0.000000 
 0.620000 0.040000 0.000000 
 0.640000 0.040000 0.000000 
 0.660000 0.040000 0.000000 
 0.680000 0.040000 0.000000 
 0.700000 0.040000 0.000000 
 0.720000 0.040000 0.000000 
 0.740000 0.040000 0.000000 
 0.760000 0.040000 0.000000 
 0.780000 0.040000 0.000000 
 0.800000 0.040000 0.000000 
 0.820000 0.040000 0.000000 
 0.840000 0.040000 0.000000 
 0.860000 0.040000 0.000000 
 0.880000 0.040000 0.000000 
 0.900000 0.040000 0.000000 
 0.920000 0.040000 0.000000 
 0.940000 0.040000 0.000000 
 0.960000 0.040000 0.000000 
 0.980000 0.040000 0.000000 
 1.000000 0.040000 0.000000 
 0.000000 0.060000 0.000000 
 0.020000 0.060000 0.000000 
 0.040000 0.060000 0.000000 
 0.060000 0.060000 0.000000 
 0.080000 0.060000 0.000000 
 0.100000 0.060000 0.000000 
 0.120000 0.060000 0.000000 
 0.140000 0.060000 0.000000 
 0.160000 0.060000 0.000000 
 0.180000 0.060000 0.000000 
 0.200000 0.060000 0.000000 
 0.220000 0.060000 0.000000 
 0.240000 0.060000 0.000000 
 0.260000 0.060000 0.000000 
 0.280000 0.060000 0.000000 
 0.300000 0.060000 0.000000 
 0.320000 0.060000 0.000000 
 0.340000 0.060000 0.000000 
 0.360000 0.060000 0.000000 
 0.380000 0.060000 0.000000 
 0.400000 0.060000 0.000000 
 0.420000 0.060000 0.000000 
 0.440000 0.060000 0.000000 
 0.460000 0.060000 0.000000 
 0.480000 0.060000 0.000000 
 0.500000 0.060000 0.000000 
 0.520000 0.060000 0.000000 
 0.540000 0.060000 0.000000 
 0.560000 0.060000 0.000000 
 0.580000 0.060000 0.000000 
 0.600000 0.060000 0.000000 
 0.620000 0.060000 0.000000 
 0.640000 0.060000 0.000000 
 0.660000 0.060000 0.000000 
 0.680000 0.060000 0.000000 
 0.700000 0.060000 0.000000 
 0.720000 0.060000 0.000000 
 0.740000 0.060000 0.000000 
 0.760000 0.060000 0.000000 
 0.780000 0.060000 0.000000 
 0.800000 0.060000 0.000000 
 0.820000 0.060000 0.000000 
 0.840000 0.060000 0.000000 
 0.860000 0.060000 0.000000 
 0.880000 0.060000 0.000000 
 0.900000 0.060000 0.000000 
 0.920000 0.060000 0.000000 
 0.940000 0.060000 0.000000 
 0.960000 0.060000 0.000000 
 0.980000 0.060000 0.000000 
 1.000000 0.060000 0.000000 
 0.000000 0.080000 0.000000 
 0.020000 0.080000 0.000000 
 0.040000 0.080000 0.000000 
 0.060000 0.080000 0.000000 
 0.080000 0.080000 0.000000 
 0.100000 0.080000 0.000000 
 0.120000 0.080000 0.000000 
 0.140000 0.080000 0.000000 
 0.160000 0.080000 0.000000 
 0.180000 0.080000 0.000000 
 0.200000 0.080000 0.000000 
 0.220000 0.080000 0.000000 
 0.240000 0.080000 0.000000 
 0.260000 0.080000 0.000000 
 0.280000 0.080000 0.000000 
 0.300000 0.080000 0.000000 
 0.320000 0.080000 0.000000 
 0.340000 0.080000 0.000000 
 0.360000 0.080000 0.000000 
 0.380000 0.080000 0.000000 
 0.400000 0.080000 0.000000 
 0.420000 0.080000 0.000000 
 0.440000 0.080000 0.000000 
 0.460000 0.080000 0.000000 
 0.480000 0.080000 0.000000 
 0.500000 0.080000 0.000000 
 0.520000 0.080000 0.000000 
 0.540000 0.080000 0.000000 
 0.560000 0.080000 0.000000 
 0.580000 0.080000 0.000000 
 0.600000 0.080000 0.000000 
 0.620000 0.080000 0.000000 
 0.640000 0.080000 0.000000 
 0.660000 0.080000 0.000000 
 0.680000 0.080000 0.000000 
 0.700000 0.080000 0.000000 
 0.720000 0.080000 0.000000 
 0.740000 0.080000 0.000000 
 0.760000 0.080000 0.000000 
 0.780000 0.080000 0.000000 
 0.800000 0.080000 0.000000 
 0.820000 0.080000 0.000000 
 0.840000 0.080000 0.000000 
 0.860000 0.080000 0.000000 
 0.880000 0.080000 0.000000 
 0.900000 0.080000 0.000000 
 0.920000 0.080000 0.000000 
 0.940000 0.080000 0.000000 
 0.960000 0.080000 0.000000 
 0.980000 0.080000 0.000000 
 1.000000 0.080000 0.000000 
 0.000000 0.100000 0.000000 
 0.020000 0.100000 0.000000 
 0.040000 0.100000 0.000000 
 0.060000 0.100000 0.000000 
 0.080000 0.100000 0.000000 
 0.100000 0.100000 0.000000 
 0.120000 0.100000 0.000000 
 0.140000 0.100000 0.000000 
 0.160000 0.100000 0.000000 
 0.180000 0.100000 0.000000 
 0.200000 0.100000 0.000000 
 0.220000 0.100000 0.000000 
 0.240000 0.100000 0.000000 
 0.260000 0.100000 0.000000 
 0.280000 0.100000 0.000000 
 0.300000 0.100000 0.000000 
 0.320000 0.100000 0.000000 
 0.340000 0.100000 0.000000 
 0.360000 0.100000 0.000000 
 0.380000 0.100000 0.000000 
 0.400000 0.100000 0.000000 
 0.420000 0.100000 0.000000 
 0.440000 0.100000 0.000000 
 0.460000 0.100000 0.000000 
 0.480000 0.100000 0.000000 
 0.500000 0.100000 0.000000 
 0.520000 0.100000 0.000000 
 0.540000 0.100000 0.000000 
 0.560000 0.100000 0.000000 
 0.580000 0.100000 0.000000 
 0.600000 0.100000 0.000000 
 0.620000 0.100000 0.000000 
 0.640000 0.100000 0.000000 
 0.660000 0.100000 0.000000 
 0.680000 0.100000 0.000000 
 0.700000 0.100000 0.000000 
 0.720000 0.100000 0.000000 
 0.740000 0.100000 0.000000 
 0.760000 0.100000 0.000000 
 0.780000 0.100000 0.000000 
 0.800000 0.100000 0.000000 
 0.820000 0.100000 0.000000 
 0.840000 0.100000 0.000000 
 0.860000 0.100000 0.000000 
 0.880000 0.100000 0.000000 
 0.900000 0.100000 0.000000 
 0.920000 0.100000 0.000000 
 0.940000 0.100000 0.000000 
 0.960000 0.100000 0.000000 
 0.980000 0.100000 0.000000 
 1.000000 0.100000 0.000000 
 0.000000 0.120000 0.000000 
 0.020000 0.120000 0.000000 
 0.040000 0.120000 0.000000 
 0.060000 0.120000 0.000000 
 0.080000 0.120000 0.000000 
 0.100000 0.120000 0.000000 
 0.120000 0.120000 0.000000 
 0.140000 0.120000 0.000000 
 0.160000 0.120000 0.000000 
 0.180000 0.120000 0.000000 
 0.200000 0.120000 0.000000 
 0.220000 0.120000 0.000000 
 0.240000 0.120000 0.000000 
 0.260000 0.120000 0.000000 
 0.280000 0.120000 0.000000 
 0.300000 0.120000 0.000000 
 0.320000 0.120000 0.000000 
 0.340000 0.120000 0.000000 
 0.360000 0.120000 0.000000 
 0.380000 0.120000 0.000000 
 0.400000 0.120000 0.000000 
 0.420000 0.120000 0.000000 
 0.440000 0.120000 0.000000 
 0.460000 0.120000 0.000000 
 0.480000 0.120000 0.000000 
 0.500000 0.120000 0.000000 
 0.520000 0.120000 0.000000 
 0.540000 0.120000 0.000000 
 0.560000 0.120000 0.000000 
 0.580000 0.120000 0.000000 
 0.600000 0.120000 0.000000 
[...]
<PointData  Scalars="U"> 
<DataArray  type="Float64"  Name="U"  format="ascii"> 
 0.000000e+00
 0.000000e+00
 0.000000e+00
 0.000000e+00
 0.000000e+00
 0.000000e+00
 0.000000e+00
 0.000000e+00
 0.000000e+00
 0.000000e+00
 0.000000e+00
 0.000000e+00
 0.000000e+00
 0.000000e+00
 0.000000e+00
 0.000000e+00
 0.000000e+00
 0.000000e+00
 0.000000e+00
 0.000000e+00
 0.000000e+00
 0.000000e+00
 0.000000e+00
 0.000000e+00
 0.000000e+00
 0.000000e+00
 0.000000e+00
 0.000000e+00
 0.000000e+00
 0.000000e+00
 0.000000e+00
 0.000000e+00
 0.000000e+00
 0.000000e+00
 0.000000e+00
 0.000000e+00
 0.000000e+00
 0.000000e+00
 0.000000e+00
 0.000000e+00
 0.000000e+00
 0.000000e+00
 0.000000e+00
 0.000000e+00
 0.000000e+00
 0.000000e+00
 0.000000e+00
 0.000000e+00
 0.000000e+00
 0.000000e+00
 0.000000e+00
 0.000000e+00
 3.062504e-09
 6.441369e-09
 1.052596e-08
 1.588221e-08
 2.343630e-08
 3.484339e-08
 5.328818e-08
 8.533802e-08
 1.454303e-07
 2.665922e-07
 5.194369e-07
 5.151536e-07
 3.485562e-05
 -5.637526e-07
 -4.070817e-07
 -2.510389e-07
 -1.502209e-07
 -8.995490e-08
 -4.963584e-08
 -2.033320e-08
 1.089814e-09
 1.628243e-08
 2.370973e-08
 5.763630e-09
 -1.284973e-07
 -1.216393e-06
 4.731974e-10
 8.155958e-07
 1.587740e-07
 1.672034e-08
 -2.212382e-08
 -6.712828e-08
 -2.347183e-07
 -1.375339e-06
 -2.527758e-07
 5.511819e-07
 1.704468e-07
 2.443211e-07
 1.343109e-07
 2.474427e-08
 -2.208523e-08
 -2.884957e-08
 -1.304446e-08
 9.613938e-09
 2.686516e-08
 3.394669e-08
 3.181419e-08
 2.344302e-08
 1.131819e-08
 0.000000e+00
 0.000000e+00
 5.820044e-09
 1.220442e-08
 1.983576e-08
 2.967752e-08
 4.324923e-08
 6.314929e-08
 9.412338e-08
 1.453952e-07
 2.361826e-07
 4.107593e-07
 7.931556e-07
 2.011706e-06
 -3.715392e-08
 -2.889538e-06
 -8.072495e-07
 -4.305991e-07
 -2.619225e-07
 -1.621528e-07
 -8.913738e-08
 -3.286192e-08
 8.105103e-09
 3.844088e-08
 6.458180e-08
 8.924234e-08
 1.128715e-07
 6.517755e-08
 1.747732e-05
 -2.847114e-08
 -2.184057e-08
 -3.795217e-08
 -3.854449e-08
 -4.871446e-08
 -8.179471e-08
 -2.152719e-07
 1.705275e-05
 -1.421280e-06
 -1.467343e-08
 8.735651e-07
 1.878044e-07
 -1.482571e-08
 -8.251885e-08
 -8.038230e-08
 -3.242458e-08
 2.613404e-08
 6.488438e-08
 7.738914e-08
 6.977553e-08
 5.023376e-08
 2.562033e-08
 0.000000e+00
 0.000000e+00
 8.031832e-09
 1.676447e-08
 2.702161e-08
 3.990915e-08
 5.706105e-08
 8.105320e-08
 1.161235e-07
 1.694085e-07
 2.528513e-07
 3.845684e-07
 5.754718e-07
 6.273013e-07
 2.309799e-08
 -6.586765e-07
 -6.617395e-07
 -4.490222e-07
 -3.160066e-07
 -2.125169e-07
 -1.130665e-07
 -2.907414e-08
 2.613250e-08
 6.402191e-08
 1.059205e-07
 1.763141e-07
 3.455896e-07
 9.723638e-07
 3.466992e-08
 -1.312566e-06
 -2.640440e-07
 -1.031216e-07
 -4.450433e-08
 -4.181181e-09
 9.365202e-08
 5.976315e-07
 -3.512524e-07
 -1.422830e-06
 1.734226e-05
 -2.611830e-08
 -7.438775e-08
 -1.615092e-07
 -2.084346e-07
 -1.818512e-07
 -6.150497e-08
 6.778600e-08
 1.309260e-07
 1.410836e-07
 1.194168e-07
 8.162177e-08
 4.028350e-08
 0.000000e+00
 0.000000e+00
 9.562340e-09
 1.984479e-08
 3.166064e-08
 4.602531e-08
 6.429544e-08
 8.834070e-08
 1.206978e-07
 1.644533e-07
 2.218728e-07
 2.882900e-07
 3.306672e-07
 2.559110e-07
 -5.390305e-09
 -2.871084e-07
 -3.959183e-07
 -3.840773e-07
 -3.456636e-07
 -2.668029e-07
 -1.214992e-07
 9.397868e-09
 6.264097e-08
 8.489781e-08
 1.235433e-07
 1.919853e-07
 2.943338e-07
 3.418536e-07
 8.025452e-08
 -2.213181e-07
 -2.037303e-07
 -9.477267e-08
 -3.322345e-08
 7.635589e-09
 3.766372e-08
 -6.788609e-08
 -1.226288e-06
 5.076745e-07
 5.886554e-07
 -1.281504e-06
 -3.905616e-07
 -3.367844e-07
 -4.071787e-07
 -4.044675e-07
 -9.574439e-08
 1.975532e-07
 2.465717e-07
 2.361414e-07
 1.849460e-07
 1.148641e-07
 5.290094e-08
 0.000000e+00
 0.000000e+00
 1.038782e-08
 2.142454e-08
 3.380663e-08
 4.832129e-08
 6.587084e-08
 8.743361e-08
 1.138382e-07
 1.450384e-07
 1.781828e-07
 2.033315e-07
 1.975341e-07
 1.293149e-07
 -5.456156e-09
 -1.515236e-07
 -2.520352e-07
 -3.193027e-07
 -4.121377e-07
 -4.163311e-07
 -1.108044e-07
 1.530428e-07
 1.252541e-07
 8.209986e-08
 1.114249e-07
 1.715163e-07
 2.139411e-07
 1.930033e-07
 8.305031e-08
 -3.406727e-08
 -6.626875e-08
 -3.923788e-08
 -3.383192e-09
 2.216996e-08
 1.723112e-08
 -6.487640e-08
 -1.605406e-07
 1.748566e-05
 -4.442248e-08
 -3.596414e-07
 -4.362115e-07
 -4.150773e-07
 -5.193469e-07
 -1.509002e-06
 -1.916259e-07
 7.150272e-07
 3.387061e-07
 3.942302e-07
 2.664537e-07
 1.344803e-07
 5.533157e-08
 0.000000e+00
 0.000000e+00
 1.057242e-08
 2.167445e-08
 3.384066e-08
 4.759946e-08
 6.342016e-08
 8.156935e-08
 1.017824e-07
 1.225921e-07
 1.401490e-07
 1.467542e-07
 1.308962e-07
 8.288690e-08
 6.621736e-09
 -7.690359e-08
 -1.497719e-07
 -2.265485e-07
 -3.955065e-07
 -1.458110e-06
 -1.392004e-07
 7.620444e-07
 1.153461e-07
 -3.777418e-09
 6.926920e-08
 1.696779e-07
 1.950635e-07
 1.596370e-07
 9.648603e-08
 3.812747e-08
 1.128050e-08
 1.560816e-08
 3.618143e-08
 6.030486e-08
 7.562392e-08
 6.224320e-08
 -4.220512e-07
 -1.359415e-07
 -7.275802e-07
 -4.270433e-07
 -4.066135e-07
 -3.913231e-07
 -3.625281e-07
 -1.458845e-07
 1.739738e-05
 -1.177015e-06
 8.186862e-08
 9.333180e-07
 2.727405e-07
 9.916306e-08
 3.576976e-08
 0.000000e+00
 0.000000e+00
 1.022865e-08
 2.086020e-08
 3.227459e-08
 4.478673e-08
 5.856171e-08
 7.345608e-08
 8.874735e-08
 1.027313e-07
 1.122700e-07
 1.126822e-07
 9.886197e-08
 6.844761e-08
 2.567624e-08
 -1.861779e-08
 -5.309054e-08
 -7.168199e-08
 -6.865358e-08
 -1.076827e-07
 1.733095e-05
 -1.760367e-07
 -2.504539e-07
 -2.844527e-07
 9.176959e-09
 2.702109e-07
 2.347761e-07
 1.544109e-07
 1.051171e-07
 7.264629e-08
 5.526858e-08
 5.532697e-08
 7.234248e-08
 1.058804e-07
 1.604842e-07
 2.482508e-07
 2.132340e-07
 1.730730e-05
 -6.337247e-07
 -6.870560e-07
 -3.696099e-07
 -1.737449e-07
 -1.069439e-06
 8.512362e-07
 8.543913e-07
 -1.135865e-06
 1.722459e-05
 -1.144355e-07
 -3.434267e-08
 -1.783408e-08
 -4.807420e-09
 0.000000e+00
 0.000000e+00
 9.478660e-09
 1.925340e-08
 2.958783e-08
 4.066287e-08
 5.249144e-08
 6.478498e-08
 7.677406e-08
 8.702543e-08
 9.338009e-08
 9.325901e-08
 8.463674e-08
 6.768821e-08
 4.634419e-08
 2.867024e-08
 2.704077e-08
 6.509444e-08
 2.173903e-07
 8.430820e-07
 -9.209014e-08
 -1.467924e-06
 -5.699315e-07
 -1.472456e-06
 -1.003645e-07
 8.381095e-07
 2.332883e-07
 1.162028e-07
 1.004486e-07
 9.240718e-08
 8.102952e-08
 7.809566e-08
 9.278840e-08
 1.321324e-07
 2.119573e-07
 3.881547e-07
 9.696890e-07
 -1.291832e-07
 -1.764999e-06
 -1.826306e-06
 -3.151903e-07
 7.495603e-07
 2.660134e-07
 1.774163e-05
 2.010680e-07
 5.804983e-07
 -3.274813e-07
 -1.527921e-06
 -3.650988e-07
 -1.262350e-07
 -3.520479e-08
 0.000000e+00
 0.000000e+00
 8.427676e-09
 1.707412e-08
 2.613385e-08
 3.573666e-08
 4.587651e-08
 5.630496e-08
 6.640783e-08
 7.512661e-08
 8.103521e-08
 8.270295e-08
 7.940518e-08
 7.204471e-08
 6.392781e-08
 6.115924e-08
 7.318562e-08
 1.145170e-07
 2.013828e-07
 2.490318e-07
 -1.971798e-09
 -2.903369e-07
 -2.567617e-07
 -1.907550e-07
 1.729760e-05
 -1.586972e-07
 -9.045128e-08
 5.293904e-09
 1.008475e-07
 1.183218e-07
 9.712548e-08
 8.270780e-08
 8.976590e-08
 1.225070e-07
 1.875235e-07
 2.893281e-07
 3.249518e-07
 2.694115e-08
 -3.105043e-07
 -3.482786e-07
 1.724980e-05
 2.481434e-08
 8.062130e-07
 3.943485e-08
 -1.189559e-06
 -1.812919e-07
 -3.385161e-07
 -5.393231e-07
 -3.581413e-07
 -1.104893e-07
 -1.290071e-08
 0.000000e+00
 0.000000e+00
 7.154348e-09
 1.447163e-08
 2.211527e-08
 3.023368e-08
 3.891106e-08
 4.807227e-08
 5.735621e-08
 6.602657e-08
 7.304165e-08
 7.738791e-08
 7.865139e-08
 7.762526e-08
 7.667611e-08
 7.967551e-08
 9.128692e-08
 1.142565e-07
 1.389450e-07
 1.256858e-07
 4.367478e-08
 -1.473115e-08
 1.104979e-07
 7.486455e-07
 -1.900951e-07
 -1.602575e-06
 -5.541860e-07
 -9.689219e-08
 2.074999e-07
 1.789754e-07
 1.000367e-07
 6.464790e-08
 6.176157e-08
 8.138285e-08
 1.204145e-07
 1.719718e-07
 1.940937e-07
 1.478852e-07
 1.741078e-07
 7.464308e-07
 -1.638548e-07
 -1.463561e-06
 -3.254156e-07
 -8.942533e-08
 -9.507277e-08
 -2.137725e-07
 -4.256199e-07
 -5.475954e-07
 -2.462315e-07
 8.349553e-08
 9.187541e-08
 0.000000e+00
 0.000000e+00
 5.718605e-09
 1.154121e-08
 1.761261e-08
 2.414633e-08
 3.141339e-08
 3.964986e-08
 4.885930e-08
 5.857894e-08
 6.781543e-08
 7.536408e-08
 8.046209e-08
 8.339422e-08
 8.564448e-08
 8.943174e-08
 9.653625e-08
 1.060150e-07
 1.109689e-07
 1.001613e-07
 7.608518e-08
 7.436728e-08
 1.352131e-07
 1.672183e-07
 -1.239424e-07
 -5.652626e-07
 -1.595085e-06
 -1.583755e-07
 8.125825e-07
 2.027042e-07
 5.470264e-08
 1.519409e-08
 1.256343e-08
 2.138221e-08
 3.354296e-08
 7.738898e-08
 1.685159e-07
 2.349171e-07
 2.545020e-07
 2.153207e-07
 -1.076988e-07
 -5.355218e-07
 -1.552955e-06
 -1.714601e-07
 6.911826e-07
 -4.850734e-08
 -4.365906e-07
 -1.597377e-06
 -2.511223e-07
 7.826805e-07
 2.207344e-07
 0.000000e+00
 0.000000e+00
 4.185937e-09
 8.374473e-09
 1.265948e-08
 1.732319e-08
 2.290937e-08
 3.017223e-08
 3.975171e-08
 5.156803e-08
 6.435192e-08
 7.597968e-08
 8.465623e-08
 8.998528e-08
 9.303221e-08
 9.546637e-08
 9.834921e-08
 1.009951e-07
 1.006922e-07
 9.518630e-08
 8.820838e-08
 8.991587e-08
 9.903244e-08
 7.596908e-08
 -1.861040e-08
 -1.072208e-07
 -1.604014e-07
 1.732457e-05
 -1.077781e-07
 -6.453571e-08
 -7.257314e-08
 -6.648233e-08
 -4.706984e-08
 -3.335195e-08
 -8.401129e-08
 -8.984104e-08
 1.805246e-07
 3.926036e-07
 2.955902e-07
 1.233768e-07
 -6.587317e-08
 -1.938388e-07
 -2.164130e-07
 1.734963e-05
 -5.269789e-08
 -8.516256e-08
 -2.193840e-07
 -3.883964e-07
 1.710519e-05
 -1.366121e-08
 2.116577e-07
 0.000000e+00
 0.000000e+00
 2.665565e-09
 5.142959e-09
 7.374322e-09
 9.620728e-09
 1.271975e-08
 1.825626e-08
 2.818339e-08
 4.341733e-08
 6.210295e-08
 7.981372e-08
 9.246933e-08
 9.896716e-08
 1.009304e-07
 1.007451e-07
 9.998343e-08
 9.886779e-08
 9.671659e-08
 9.333224e-08
 9.037906e-08
 9.004120e-08
 9.004279e-08
 8.445848e-08
 8.967260e-08
 2.034638e-07
 8.148472e-07
 -1.029536e-07
 -1.422983e-06
 -3.621251e-07
 -2.092614e-07
 -1.649287e-07
 -1.101411e-07
 -2.339669e-08
 -7.062183e-08
 -1.114513e-06
 1.675180e-07
 1.024179e-06
 3.206915e-07
 7.269012e-08
 -7.086907e-08
 -7.383323e-08
 5.879790e-07
 2.262641e-08
 -1.061815e-06
 -9.862609e-08
 -5.250031e-08
 3.740970e-07
 -1.344482e-06
 -1.131646e-06
 7.301236e-07
 0.000000e+00
 0.000000e+00
 1.353307e-09
 2.208021e-09
 2.170922e-09
 1.204416e-09
 1.881169e-10
 1.797170e-09
 1.078590e-08
 3.128553e-08
 6.089746e-08
 8.930405e-08
 1.069447e-07
 1.125902e-07
 1.108095e-07
 1.063497e-07
 1.017910e-07
 9.784505e-08
 9.436264e-08
 9.128593e-08
 8.911011e-08
 8.842548e-08
 8.942016e-08
 9.473626e-08
 1.176445e-07
 1.821421e-07
 2.128783e-07
 -4.782450e-08
 -3.448628e-07
 -3.343176e-07
 -2.595636e-07
 -2.831312e-07
 -2.433028e-07
 9.493577e-08
 3.831664e-07
 3.041720e-07
 1.765182e-05
 1.087146e-07
 6.420799e-08
 -3.753568e-08
 -1.827769e-07
 -3.102111e-07
 -1.063841e-06
 2.398431e-07
 8.229295e-07
 1.491272e-07
 1.136664e-08
 -9.953887e-07
 4.117149e-08
 1.811923e-05
 4.421463e-08
 0.000000e+00
 0.000000e+00
 5.533904e-10
 2.152732e-10
 -1.962704e-09
 -6.856750e-09
 -1.453511e-08
 -2.200279e-08
 -1.933459e-08
 8.321208e-09
 6.107119e-08
 1.113420e-07
 1.344457e-07
 1.335346e-07
 1.229334e-07
 1.117296e-07
 1.028450e-07
 9.638596e-08
 9.172629e-08
 8.837135e-08
 8.619120e-08
 8.533066e-08
 8.628813e-08
 9.060223e-08
 1.002203e-07
 1.072798e-07
 7.303674e-08
 -3.903017e-08
 -1.588512e-07
 -2.039094e-07
 -2.134139e-07
 -2.998121e-07
 -1.259378e-06
 1.862750e-07
 1.294556e-06
 1.289463e-06
 1.855754e-07
 -1.226645e-06
 -2.204079e-07
 -1.052480e-07
 -1.756209e-07
 -1.172200e-06
 9.155914e-08
 1.834323e-05
 1.793569e-07
 1.653100e-07
 3.135820e-07
 4.606048e-07
 1.846000e-05
 -3.725915e-09
 -1.261104e-06
 0.000000e+00
 0.000000e+00
 6.313194e-10
 6.018911e-11
 -3.285670e-09
 -1.170180e-08
 -2.822759e-08
 -5.440595e-08
 -7.688818e-08
 -4.623321e-08
 6.447333e-08
 1.669314e-07
 1.875155e-07
 1.627417e-07
 1.345783e-07
 1.143790e-07
 1.013837e-07
 9.316506e-08
 8.785632e-08
 8.432466e-08
 8.198573e-08
 8.059652e-08
 8.009176e-08
 8.022514e-08
 7.900880e-08
 6.916209e-08
 3.781855e-08
 -1.853079e-08
 -7.775838e-08
 -1.141088e-07
 -1.132364e-07
 -3.063512e-08
 9.942893e-08
 1.772757e-05
 3.887926e-07
 4.403141e-07
 1.336712e-07
 -2.015943e-07
 -2.050907e-07
 -5.330459e-08
 1.661753e-07
 3.981639e-07
 1.845422e-05
 -7.558974e-08
 -1.422696e-06
 -2.800789e-08
 6.050340e-07
 1.343314e-06
 4.018313e-07
 -1.200024e-06
 -3.674753e-07
 0.000000e+00
 0.000000e+00
 1.850445e-09
 2.555017e-09
 2.988934e-10
 -8.405270e-09
 -3.073588e-08
 -8.177210e-08
 -1.879508e-07
 -2.106119e-07
 8.037231e-08
 3.318484e-07
 2.820219e-07
 1.890217e-07
 1.368331e-07
 1.097315e-07
 9.527701e-08
 8.716209e-08
 8.230078e-08
 7.913993e-08
 7.686145e-08
 7.497742e-08
 7.304740e-08
 7.029617e-08
 6.495115e-08
 5.376294e-08
 3.355345e-08
 5.472592e-09
 -2.436508e-08
 -5.427707e-08
 -8.882030e-08
 8.118263e-08
 1.045325e-06
 4.227273e-07
 -9.179232e-07
 3.263911e-08
 3.247767e-08
 -8.245673e-08
 -1.741108e-07
 -8.979437e-08
 4.398792e-07
 1.420944e-06
 4.642303e-07
 -1.354351e-06
 -1.661895e-06
 -9.690228e-08
 1.105816e-06
 6.328539e-07
 2.522443e-07
 -1.419079e-07
 -1.731736e-07
 0.000000e+00
 0.000000e+00
 4.111714e-09
 7.756504e-09
 9.778852e-09
 7.291257e-09
 -6.980867e-09
 -5.435787e-08
 -2.135435e-07
 -1.272755e-06
 5.331983e-08
 9.700511e-07
 3.341522e-07
 1.705633e-07
 1.155479e-07
 9.346019e-08
 8.332233e-08
 7.813761e-08
 7.515757e-08
 7.312461e-08
 7.135307e-08
 6.935862e-08
 6.666179e-08
 6.265908e-08
 5.662992e-08
 4.818540e-08
 3.839308e-08
 3.046363e-08
 2.651371e-08
 1.507100e-08
 -7.216779e-08
 -1.012738e-06
 3.904384e-07
 1.080516e-06
 1.672546e-07
 1.414366e-08
 2.034848e-08
 -2.011827e-08
 -1.446808e-07
 -1.119109e-06
 3.476225e-07
 1.358708e-06
 4.736103e-07
 -4.104196e-08
 -1.682922e-07
 1.740903e-05
 8.146462e-08
 1.688484e-07
 8.785963e-08
 -2.313305e-08
 -5.069558e-08
 0.000000e+00
 0.000000e+00
 6.731963e-09
 1.432361e-08
 2.317200e-08
 3.302908e-08
 4.340296e-08
 5.512913e-08
 7.679577e-08
 5.278870e-08
 1.751454e-05
 5.688304e-08
 8.594385e-08
 7.096944e-08
 6.770223e-08
 6.700018e-08
 6.698392e-08
 6.711800e-08
 6.715050e-08
 6.687748e-08
 6.606719e-08
 6.441908e-08
 6.155096e-08
 5.707894e-08
 5.096488e-08
 4.441824e-08
 4.142176e-08
 4.971096e-08
 7.830102e-08
 1.314855e-07
 2.100870e-07
 2.371897e-07
 1.769873e-05
 1.536567e-07
 8.121003e-08
 3.761707e-08
 5.567145e-08
 9.047214e-08
 1.488641e-07
 1.793909e-07
 1.769970e-05
 2.585109e-07
 2.342642e-07
 2.491254e-07
 8.421892e-07
 -2.351697e-08
 -1.276492e-06
 -1.786250e-07
 -3.214739e-08
 -1.837723e-08
 -1.709996e-08
 0.000000e+00
 0.000000e+00
 8.407749e-09
 1.951046e-08
 3.549026e-08
 5.839448e-08
 9.325053e-08
 1.590198e-07
 3.304137e-07
 9.715231e-07
 5.851371e-08
 -1.264100e-06
 -2.007196e-07
 -3.611111e-08
 1.801526e-08
 4.000114e-08
 5.052809e-08
 5.620504e-08
 5.944372e-08
 6.115565e-08
 6.160344e-08
 6.069257e-08
 5.808593e-08
 5.332600e-08
 4.619740e-08
 3.782920e-08
 3.353946e-08
 4.770997e-08
 1.041874e-07
 2.251853e-07
 4.565995e-07
 1.128460e-06
 2.040841e-07
 -1.163030e-06
 -1.450286e-07
 5.238487e-09
 8.471248e-08
 1.815644e-07
 3.851358e-07
 1.060340e-06
 1.738769e-07
 -1.143457e-06
 -8.843536e-08
 1.064967e-07
 1.979934e-07
 1.472554e-08
 -2.059895e-07
 -1.491086e-07
 -4.690336e-08
 -1.537064e-08
 -6.801076e-09
 0.000000e+00
 0.000000e+00
 7.282686e-09
 1.973093e-08
 4.121232e-08
 7.356463e-08
 1.187643e-07
 1.849616e-07
 2.864133e-07
 3.403868e-07
 9.097126e-08
 -1.981768e-07
 -1.727860e-07
 -6.252157e-08
 -6.056504e-09
 2.271416e-08
 3.836248e-08
 4.751913e-08
 5.316810e-08
 5.664268e-08
 5.845796e-08
 5.863620e-08
 5.679664e-08
 5.211968e-08
 4.327969e-08
 2.873202e-08
 9.369201e-09
 2.607489e-09
 6.492609e-08
 2.354550e-07
 4.394829e-07
 5.149979e-07
 2.360864e-07
 -9.183110e-08
 -9.349495e-08
 1.362574e-08
 9.767640e-08
 1.919318e-07
 3.200671e-07
 3.975808e-07
 1.608866e-07
 -1.345043e-07
 -1.351277e-07
 -5.720972e-08
 -1.728574e-08
 6.965929e-09
 1.095465e-08
 8.399580e-09
 7.986090e-09
 5.097491e-09
 1.785155e-09
 0.000000e+00
 0.000000e+00
 7.732399e-10
 1.049561e-08
 3.594300e-08
 7.693055e-08
 1.254023e-07
 1.722243e-07
 2.044793e-07
 1.845333e-07
 8.056553e-08
 -3.102169e-08
 -6.081676e-08
 -3.554764e-08
 -4.905363e-09
 1.731756e-08
 3.214643e-08
 4.209472e-08
 4.894291e-08
 5.371277e-08
 5.688568e-08
 5.852614e-08
 5.825562e-08
 5.499841e-08
 4.625170e-08
 2.623706e-08
 -1.820885e-08
 -1.110727e-07
 -1.110986e-07
 2.120938e-07
 4.926595e-07
 4.250708e-07
 2.302118e-07
 6.804272e-08
 1.702864e-08
 4.467128e-08
 9.943744e-08
 1.632241e-07
 2.192209e-07
 2.207372e-07
 1.252605e-07
 -2.077515e-09
 -8.835068e-08
 -1.895160e-07
 -2.236708e-07
 2.626382e-08
 2.323525e-07
 1.602982e-07
 6.801074e-08
 2.548509e-08
 8.100748e-09
 0.000000e+00
 0.000000e+00
 -1.491184e-08
 -1.573196e-08
 1.346818e-08
 7.286969e-08
 1.340476e-07
 1.687839e-07
 1.707516e-07
 1.397644e-07
 8.174510e-08
 2.442428e-08
 -4.349237e-09
 -5.242995e-09
 6.185703e-09
 1.934667e-08
 3.065187e-08
 3.964215e-08
 4.670941e-08
 5.231431e-08
 5.677763e-08
 6.022237e-08
 6.249110e-08
 6.288508e-08
 5.935245e-08
 4.582680e-08
 2.333230e-09
 -1.488107e-07
 -1.196039e-06
 1.424777e-07
 1.062198e-06
 4.048765e-07
 1.926668e-07
 8.872577e-08
 4.905583e-08
 5.695286e-08
 9.200964e-08
 1.359126e-07
 1.687185e-07
 1.680059e-07
 1.247985e-07
 5.674874e-08
 -2.872476e-08
 -2.102645e-07
 -1.291199e-06
 7.371443e-09
 8.973967e-07
 2.446608e-07
 7.593128e-08
 2.325446e-08
 6.145509e-09
 0.000000e+00
 0.000000e+00
 -4.358916e-08
 -7.454077e-08
 -4.581108e-08
 6.739969e-08
 1.744753e-07
 1.982729e-07
 1.701346e-07
 1.273535e-07
 8.257475e-08
 4.472111e-08
 2.178088e-08
 1.428186e-08
 1.679860e-08
 2.367465e-08
 3.157464e-08
 3.911083e-08
 4.591178e-08
 5.202525e-08
 5.764561e-08
 6.301663e-08
 6.841456e-08
 7.417019e-08
 8.073116e-08
 8.886444e-08
 1.006132e-07
 1.249538e-07
 1.051139e-07
 1.756918e-05
 1.064954e-07
 1.182548e-07
 7.540018e-08
 4.511053e-08
 3.237123e-08
 4.297808e-08
 7.536065e-08
 1.186651e-07
 1.537636e-07
 1.641314e-07
 1.483314e-07
 1.197937e-07
 9.457378e-08
 8.647524e-08
 3.734903e-08
 1.747633e-05
 -4.249368e-10
 1.587133e-08
 -4.712683e-09
 -7.882180e-09
 -5.028388e-09
 0.000000e+00
 0.000000e+00
 -7.623240e-08
 -1.933113e-07
 -2.193655e-07
 7.210547e-08
 3.252857e-07
 2.757241e-07
 1.789007e-07
 1.173053e-07
 7.655600e-08
 4.849833e-08
 3.135745e-08
 2.389321e-08
 2.352444e-08
 2.730841e-08
 3.301771e-08
 3.937543e-08
 4.582156e-08
 5.223556e-08
 5.876740e-08
 6.579224e-08
 7.399730e-08
 8.469060e-08
 1.006773e-07
 1.289633e-07
 1.903876e-07
 3.601286e-07
 1.000881e-06
 8.593072e-08
 -1.243583e-06
 -1.942277e-07
 -4.969624e-08
 -1.671439e-08
 -8.947000e-09
 5.670515e-09
 4.602213e-08
 1.099773e-07
 1.664950e-07
 1.893358e-07
 1.848687e-07
 1.781679e-07
 2.036435e-07
 3.420729e-07
 9.575267e-07
 2.461192e-08
 -1.312807e-06
 -2.589647e-07
 -9.866193e-08
 -4.423817e-08
 -1.815934e-08
 0.000000e+00
 0.000000e+00
 -6.721225e-08
 -2.336565e-07
 -1.294433e-06
 3.261931e-08
 9.507873e-07
 3.150541e-07
 1.490315e-07
 8.855089e-08
 5.892007e-08
 4.130087e-08
 3.094923e-08
 2.635855e-08
 2.624638e-08
 2.918744e-08
 3.393150e-08
 3.962130e-08
 4.580514e-08
 5.236220e-08
 5.944296e-08
 6.747842e-08
 7.730267e-08
 9.048046e-08
 1.100628e-07
 1.422390e-07
 1.991865e-07
 2.961289e-07
 3.482543e-07
 9.631012e-08
 -1.990503e-07
 -1.853367e-07
 -9.261947e-08
 -5.930782e-08
 -5.807755e-08
 -6.072002e-08
 -1.357683e-08
 1.097931e-07
 2.200966e-07
 2.446174e-07
 2.240755e-07
 2.091888e-07
 2.263986e-07
 2.925595e-07
 3.223164e-07
 5.643709e-08
 -2.436070e-07
 -2.245620e-07
 -1.165796e-07
 -5.868516e-08
 -2.488832e-08
 0.000000e+00
 0.000000e+00
 1.297620e-08
 3.671680e-08
 1.578296e-08
 1.748098e-05
 2.624264e-08
 5.679273e-08
 4.131072e-08
 3.554215e-08
 3.105452e-08
 2.720652e-08
 2.475286e-08
 2.430768e-08
 2.595024e-08
 2.933550e-08
 3.396934e-08
 3.942758e-08
 4.545877e-08