<VTKFile type="UnstructuredGrid"  version="0.1"   >
<UnstructuredGrid>  
<Piece  NumberOfPoints="     2601"  NumberOfCells="     5000">  
<Points>  
<DataArray  type="Float64"  NumberOfComponents="3"  format="ascii">  
 0.000000 0.000000 0.000000 
 0.020000 0.000000 0.000000 
 0.040000 0.000000 0.000000 
 0.060000 0.000000 0.000000 
 0.080000 0.000000 0.000000 
 0.100000 0.000000 0.000000 
 0.120000 0.000000 0.000000 
 0.140000 0.000000 0.000000 
 0.160000 0.000000 0.000000 
 0.180000 0.000000 0.000000 
 0.200000 0.000000 0.000000 
 0.220000 0.000000 0.000000 
 0.240000 0.000000 0.000000 
 0.260000 0.000000 0.000000 
 0.280000 0.000000 0.000000 
 0.300000 0.000000 0.000000 
 0.320000 0.000000 0.000000 
 0.340000 0.000000 0.000000 
 0.360000 0.000000 0.000000 
 0.380000 0.000000 0.000000 
 0.400000 0.000000 0.000000 
 0.420000 0.000000 0.000000 
 0.440000 0.000000 0.000000 
 0.460000 0.000000 0.000000 
 0.480000 0.000000 0.000000 
 0.500000 0.000000 0.000000 
 0.520000 0.000000 0.000000 
 0.540000 0.000000 0.000000 
 0.560000 0.000000 0.000000 
 0.580000 0.000000 0.000000 
 0.600000 0.000000 0.000000 
 0.620000 0.000000 0.000000 
 0.640000 0.000000 0.000000 
 0.660000 0.000000 0.000000 
 0.680000 0.000000 0.000000 
 0.700000 0.000000 0.000000 
 0.720000 0.000000 0.000000 
 0.740000 0.000000 0.000000 
 0.760000 0.000000 0.000000 
 0.780000 0.000000 0.000000 
 0.800000 0.000000 0.000000 
 0.820000 0.000000 0.000000 
 0.840000 0.000000 0.000000 
 0.860000 0.000000 0.000000 
 0.880000 0.000000 0.000000 
 0.900000 0.000000 0.000000 
 0.920000 0.000000 0.000000 
 0.940000 0.000000 0.000000 
 0.960000 0.000000 0.000000 
 0.980000 0.000000 0.000000 
 1.000000 0.000000 0.000000 
 0.000000 0.020000 0.000000 
 0.020000 0.020000 0.000000 
 0.040000 0.020000 0.000000 
 0.060000 0.020000 0.000000 
 0.080000 0.020000 0.000000 
 0.100000 0.020000 0.000000 
 0.120000 0.020000 0.000000 
 0.140000 0.020000 0.000000 
 0.160000 0.020000 0.000000 
 0.180000 0.020000 0.000000 
 0.200000 0.020000 0.000000 
 0.220000 0.020000 0.000000 
 0.240000 0.020000 0.000000 
 0.260000 0.020000 0.000000 
 0.280000 0.020000 0.000000 
 0.300000 0.020000 0.000000 
 0.320000 0.020000 0.000000 
 0.340000 0.020000 0.000000 
 0.360000 0.020000 0.000000 
 0.380000 0.020000 0.000000 
 0.400000 0.020000 0.000000 
 0.420000 0.020000 0.000000 
 0.440000 0.020000 0.000000 
 0.460000 0.020000 0.000000 
 0.480000 0.020000 0.000000 
 0.500000 0.020000 0.000000 
 0.520000 0.020000 0.000000 
 0.540000 0.020000 0.000000 
 0.560000 0.020000 0.000000 
 0.580000 0.020000 0.000000 
 0.600000 0.020000 0.000000 
 0.620000 0.020000 0.000000 
 0.640000 0.020000 0.000000 
 0.660000 0.020000 0.000000 
 0.680000 0.020000 0.000000 
 0.700000 0.020000 0.000000 
 0.720000 0.020000 0.000000 
 0.740000 0.020000 0.000000 
 0.760000 0.020000 0.000000 
 0.780000 0.020000 0.000000 
 0.800000 0.020000 0.000000 
 0.820000 0.020000 0.000000 
 0.840000 0.020000 0.000000 
 0.860000 0.020000 0.000000 
 0.880000 0.020000 0.000000 
 0.900000 0.020000 0.000000 
 0.920000 0.020000 0.000000 
 0.940000 0.020000 0.000000 
 0.960000 0.020000 0.000000 
 0.980000 0.020000 0.000000 
 1.000000 0.020000 0.000000 
 0.000000 0.040000 0.000000 
 0.020000 0.040000 0.000000 
 0.040000 0.040000 0.000000 
 0.060000 0.040000 0.000000 
 0.080000 0.040000 0.000000 
 0.100000 0.040000 0.000000 
 0.120000 0.040000 0.000000 
 0.140000 0.040000 0.000000 
 0.160000 0.040000 0.000000 
 0.180000 0.040000 0.000000 
 0.200000 0.040000 0.000000 
 0.220000 0.040000 0.000000 
 0.240000 0.040000 0.000000 
 0.260000 0.040000 0.000000 
 0.280000 0.040000 0.000000 
 0.300000 0.040000 0.000000 
 0.320000 0.040000 0.000000 
 0.340000 0.040000 0.000000 
 0.360000 0.040000 0.000000 
 0.380000 0.040000 0.000000 
 0.400000 0.040000 0.000000 
 0.420000 0.040000 0.000000 
 0.440000 0.040000 0.000000 
 0.460000 0.040000 0.000000 
 0.480000 0.040000 0.000000 
 0.500000 0.040000 0.000000 
 0.520000 0.040000 0.000000 
 0.540000 0.040000 0.000000 
 0.560000 0.040000 0.000000 
 0.580000 0.040000 0.000000 
 0.600000 0.040000 0.000000 
 0.620000 0.040000 0.000000 
 0.640000 0.040000 0.000000 
 0.660000 0.040000 0.000000 
 0.680000 0.040000 0.000000 
 0.700000 0.040000 0.000000 
 0.720000 0.040000 0.000000 
 0.740000 0.040000 0.000000 
 0.760000 0.040000 0.000000 
 0.780000 0.040000 0.000000 
 0.800000 0.040000 0.000000 
 0.820000 0.040000 0.000000 
 0.840000 0.040000 0.000000 
 0.860000 0.040000 0.000000 
 0.880000 0.040000 0.000000 
 0.900000 0.040000 0.000000 
 0.920000 0.040000 0.000000 
 0.940000 0.040000 0.000000 
 0.960000 0.040000 0.000000 
 0.980000 0.040000 0.000000 
 1.000000 0.040000 0.000000 
 0.000000 0.060000 0.000000 
 0.020000 0.060000 0.000000 
 0.040000 0.060000 0.000000 
 0.060000 0.060000 0.000000 
 0.080000 0.060000 0.000000 
 0.100000 0.060000 0.000000 
 0.120000 0.060000 0.000000 
 0.140000 0.060000 0.000000 
 0.160000 0.060000 0.000000 
 0.180000 0.060000 0.000000 
 0.200000 0.060000 0.000000 
 0.220000 0.060000 0.000000 
 0.240000 0.060000 0.000000 
 0.260000 0.060000 0.000000 
 0.280000 0.060000 0.000000 
 0.300000 0.060000 0.000000 
 0.320000 0.060000 0.000000 
 0.340000 0.060000 0.000000 
 0.360000 0.060000 0.000000 
 0.380000 0.060000 0.000000 
 0.400000 0.060000 0.000000 
 0.420000 0.060000 0.000000 
 0.440000 0.060000 0.000000 
 0.460000 0.060000 0.000000 
 0.480000 0.060000 0.000000 
 0.500000 0.060000 0.000000 
 0.520000 0.060000 0.000000 
 0.540000 0.060000 0.000000 
 0.560000 0.060000 0.000000 
 0.580000 0.060000 0.000000 
 0.600000 0.060000 0.000000 
 0.620000 0.060000 0.000000 
 0.640000 0.060000 0.000000 
 0.660000 0.060000 0.000000 
 0.680000 0.060000 0.000000 
 0.700000 0.060000 0.000000 
 0.720000 0.060000 0.000000 
 0.740000 0.060000 0.000000 
 0.760000 0.060000 0.000000 
 0.780000 0.060000 0.000000 
 0.800000 0.060000 0.000000 
 0.820000 0.060000 0.000000 
 0.840000 0.060000 0.000000 
 0.860000 0.060000 0.000000 
 0.880000 0.060000 0.000000 
 0.900000 0.060000 0.000000 
 0.920000 0.060000 0.000000 
 0.940000 0.060000 0.000000 
 0.960000 0.060000 0.000000 
 0.980000 0.060000 0.000000 
 1.000000 0.060000 0.000000 
 0.000000 0.080000 0.000000 
 0.020000 0.080000 0.000000 
 0.040000 0.080000 0.000000 
 0.060000 0.080000 0.000000 
 0.080000 0.080000 0.000000 
 0.100000 0.080000 0.000000 
 0.120000 0.080000 0.000000 
 0.140000 0.080000 0.000000 
 0.160000 0.080000 0.000000 
 0.180000 0.080000 0.000000 
 0.200000 0.080000 0.000000 
 0.220000 0.080000 0.000000 
 0.240000 0.080000 0.000000 
 0.260000 0.080000 0.000000 
 0.280000 0.080000 0.000000 
 0.300000 0.080000 0.000000 
 0.320000 0.080000 0.000000 
 0.340000 0.080000 0.000000 
 0.360000 0.080000 0.000000 
 0.380000 0.080000 0.000000 
 0.400000 0.080000 0.000000 
 0.420000 0.080000 0.000000 
 0.440000 0.080000 0.000000 
 0.460000 0.080000 0.000000 
 0.480000 0.080000 0.000000 
 0.500000 0.080000 0.000000 
 0.520000 0.080000 0.000000 
 0.540000 0.080000 0.000000 
 0.560000 0.080000 0.000000 
 0.580000 0.080000 0.000000 
 0.600000 0.080000 0.000000 
 0.620000 0.080000 0.000000 
 0.640000 0.080000 0.000000 
 0.660000 0.080000 0.000000 
 0.680000 0.080000 0.000000 
 0.700000 0.080000 0.000000 
 0.720000 0.080000 0.000000 
 0.740000 0.080000 0.000000 
 0.760000 0.080000 0.000000 
 0.780000 0.080000 0.000000 
 0.800000 0.080000 0.000000 
 0.820000 0.080000 0.000000 
 0.840000 0.080000 0.000000 
 0.860000 0.080000 0.000000 
 0.880000 0.080000 0.000000 
 0.900000 0.080000 0.000000 
 0.920000 0.080000 0.000000 
 0.940000 0.080000 0.000000 
 0.960000 0.080000 0.000000 
 0.980000 0.080000 0.000000 
 1.000000 0.080000 0.000000 
 0.000000 0.100000 0.000000 
 0.020000 0.100000 0.000000 
 0.040000 0.100000 0.000000 
 0.060000 0.100000 0.000000 
 0.080000 0.100000 0.000000 
 0.100000 0.100000 0.000000 
 0.120000 0.100000 0.000000 
 0.140000 0.100000 0.000000 
 0.160000 0.100000 0.000000 
 0.180000 0.100000 0.000000 
 0.200000 0.100000 0.000000 
 0.220000 0.100000 0.000000 
 0.240000 0.100000 0.000000 
 0.260000 0.100000 0.000000 
 0.280000 0.100000 0.000000 
 0.300000 0.100000 0.000000 
 0.320000 0.100000 0.000000 
 0.340000 0.100000 0.000000 
 0.360000 0.100000 0.000000 
 0.380000 0.100000 0.000000 
 0.400000 0.100000 0.000000 
 0.420000 0.100000 0.000000 
 0.440000 0.100000 0.000000 
 0.460000 0.100000 0.000000 
 0.480000 0.100000 0.000000 
 0.500000 0.100000 0.000000 
 0.520000 0.100000 0.000000 
 0.540000 0.100000 0.000000 
 0.560000 0.100000 0.000000 
 0.580000 0.100000 0.000000 
 0.600000 0.100000 0.000000 
 0.620000 0.100000 0.000000 
 0.640000 0.100000 0.000000 
 0.660000 0.100000 0.000000 
 0.680000 0.100000 0.000000 
 0.700000 0.100000 0.000000 
 0.720000 0.100000 0.000000 
 0.740000 0.100000 0.000000 
 0.760000 0.100000 0.000000 
 0.780000 0.100000 0.000000 
 0.800000 0.100000 0.000000 
 0.820000 0.100000 0.000000 
 0.840000 0.100000 0.000000 
 0.860000 0.100000 0.000000 
 0.880000 0.100000 0.000000 
 0.900000 0.100000 0.000000 
 0.920000 0.100000 0.000000 
 0.940000 0.100000 0.000000 
 0.960000 0.100000 0.000000 
 0.980000 0.100000 0.000000 
 1.000000 0.100000 0.000000 
 0.000000 0.120000 0.000000 
 0.020000 0.120000 0.000000 
 0.040000 0.120000 0.000000 
 0.060000 0.120000 0.000000 
 0.080000 0.120000 0.000000 
 0.100000 0.120000 0.000000 
 0.120000 0.120000 0.000000 
 0.140000 0.120000 0.000000 
 0.160000 0.120000 0.000000 
 0.180000 0.120000 0.000000 
 0.200000 0.120000 0.000000 
 0.220000 0.120000 0.000000 
 0.240000 0.120000 0.000000 
 0.260000 0.120000 0.000000 
 0.280000 0.120000 0.000000 
 0.300000 0.120000 0.000000 
 0.320000 0.120000 0.000000 
 0.340000 0.120000 0.000000 
 0.360000 0.120000 0.000000 
 0.380000 0.120000 0.000000 
 0.400000 0.120000 0.000000 
 0.420000 0.120000 0.000000 
 0.440000 0.120000 0.000000 
 0.460000 0.120000 0.000000 
 0.480000 0.120000 0.000000 
 0.500000 0.120000 0.000000 
 0.520000 0.120000 0.000000 
 0.540000 0.120000 0.000000 
 0.560000 0.120000 0.000000 
 0.580000 0.120000 0.000000 
 0.600000 0.120000 0.000000 
[...]
<PointData  Scalars="U"> 
<DataArray  type="Float64"  Name="U"  format="ascii"> 
 0.000000e+00
 0.000000e+00
 0.000000e+00
 0.000000e+00
 0.000000e+00
 0.000000e+00
 0.000000e+00
 0.000000e+00
 0.000000e+00
 0.000000e+00
 0.000000e+00
 0.000000e+00
 0.000000e+00
 0.000000e+00
 0.000000e+00
 0.000000e+00
 0.000000e+00
 0.000000e+00
 0.000000e+00
 0.000000e+00
 0.000000e+00
 0.000000e+00
 0.000000e+00
 0.000000e+00
 0.000000e+00
 0.000000e+00
 0.000000e+00
 0.000000e+00
 0.000000e+00
 0.000000e+00
 0.000000e+00
 0.000000e+00
 0.000000e+00
 0.000000e+00
 0.000000e+00
 0.000000e+00
 0.000000e+00
 0.000000e+00
 0.000000e+00
 0.000000e+00
 0.000000e+00
 0.000000e+00
 0.000000e+00
 0.000000e+00
 0.000000e+00
 0.000000e+00
 0.000000e+00
 0.000000e+00
 0.000000e+00
 0.000000e+00
 0.000000e+00
 0.000000e+00
 -7.875220e-09
 -1.644904e-08
 -2.664709e-08
 -3.972388e-08
 -5.684177e-08
 -7.710392e-08
 -9.357056e-08
 -9.435366e-08
 -8.137948e-08
 -8.509078e-08
 -1.408825e-07
 -2.797811e-07
 -5.924568e-07
 -1.453856e-06
 -3.562857e-06
 -3.867733e-06
 -1.395200e-06
 -5.415590e-07
 -1.018709e-07
 -5.462175e-08
 -7.108807e-08
 -6.415820e-08
 -5.792079e-08
 -6.576447e-08
 -7.598018e-08
 -3.395315e-08
 1.072387e-07
 3.051538e-07
 3.016035e-07
 1.743640e-05
 -3.039001e-07
 -2.483290e-07
 -2.135231e-07
 -3.219480e-07
 -1.369058e-06
 -5.853335e-08
 8.383694e-07
 2.043752e-07
 6.980230e-08
 4.602084e-08
 3.473816e-08
 1.847267e-08
 3.063594e-09
 -7.160470e-09
 -1.200972e-08
 -1.281786e-08
 -1.101983e-08
 -7.749256e-09
 -3.653229e-09
 0.000000e+00
 0.000000e+00
 -1.509206e-08
 -3.134001e-08
 -5.043946e-08
 -7.515236e-08
 -1.094732e-07
 -1.564792e-07
 -2.050391e-07
 -2.089453e-07
 -1.464526e-07
 -1.150561e-07
 -2.060907e-07
 -4.187439e-07
 -7.811984e-07
 -1.371050e-06
 -2.023802e-06
 -2.171197e-06
 -2.647171e-06
 -8.402739e-07
 3.320351e-07
 -1.405616e-07
 -1.703876e-07
 -1.245297e-07
 -9.862215e-08
 -1.197068e-07
 -2.022360e-07
 -1.920822e-07
 1.664677e-07
 5.861827e-07
 1.123174e-06
 -1.300783e-08
 -1.500713e-06
 -4.810733e-07
 -3.052149e-07
 -2.874212e-07
 -3.204032e-07
 1.737647e-05
 9.993722e-08
 7.446761e-08
 5.700936e-08
 9.195688e-08
 7.741806e-08
 3.515996e-08
 1.884459e-10
 -1.989065e-08
 -2.805071e-08
 -2.818768e-08
 -2.343747e-08
 -1.619051e-08
 -8.093396e-09
 0.000000e+00
 0.000000e+00
 -2.124227e-08
 -4.356218e-08
 -6.886458e-08
 -1.010380e-07
 -1.479958e-07
 -2.257213e-07
 -3.618257e-07
 -4.203198e-07
 -1.774704e-07
 2.116840e-09
 -1.593195e-07
 -4.230516e-07
 -7.217323e-07
 -1.051348e-06
 -1.303126e-06
 -1.303526e-06
 -1.127167e-06
 1.657141e-05
 -7.067864e-07
 -5.098939e-07
 -3.200151e-07
 -1.542997e-07
 -9.169952e-08
 -1.127933e-07
 -2.508723e-07
 -1.277644e-06
 1.007651e-07
 1.094046e-06
 4.586808e-07
 -3.927622e-08
 -4.615296e-07
 -4.583443e-07
 -2.587739e-07
 -1.125107e-07
 -5.000949e-07
 -1.279958e-07
 -6.451423e-07
 -2.624328e-07
 -2.566402e-09
 2.175824e-07
 1.450410e-07
 3.870146e-08
 -1.876602e-08
 -4.451230e-08
 -5.196073e-08
 -4.832852e-08
 -3.822506e-08
 -2.536150e-08
 -1.234555e-08
 0.000000e+00
 0.000000e+00
 -2.644426e-08
 -5.311135e-08
 -8.103496e-08
 -1.133896e-07
 -1.582022e-07
 -2.371561e-07
 -4.278849e-07
 -1.518072e-06
 -2.284315e-07
 6.316804e-07
 -9.602604e-08
 -3.920648e-07
 -6.102752e-07
 -7.892946e-07
 -8.708758e-07
 -7.327591e-07
 -2.501511e-08
 -8.485907e-07
 -2.140282e-06
 -9.860646e-07
 -4.388662e-07
 -5.535604e-08
 -1.171697e-08
 -2.466918e-08
 4.500344e-09
 5.035732e-09
 1.749367e-05
 4.332156e-08
 8.464610e-09
 -1.885152e-07
 -4.322960e-07
 -4.921441e-07
 -1.545775e-07
 2.077498e-07
 2.174761e-07
 1.740837e-05
 -4.486700e-07
 -1.472175e-06
 -1.086026e-07
 8.068635e-07
 1.606432e-07
 -1.054164e-08
 -6.779356e-08
 -8.638421e-08
 -8.658380e-08
 -7.485060e-08
 -5.560216e-08
 -3.435392e-08
 -1.563677e-08
 0.000000e+00
 0.000000e+00
 -3.154397e-08
 -6.173264e-08
 -8.948009e-08
 -1.149838e-07
 -1.404167e-07
 -1.664686e-07
 -1.797749e-07
 -2.245408e-07
 1.722900e-05
 -2.531155e-07
 -2.901128e-07
 -4.072038e-07
 -5.239040e-07
 -6.159184e-07
 -6.434599e-07
 -5.721662e-07
 -4.950957e-07
 -7.149061e-07
 -1.074278e-06
 -2.022701e-06
 -5.065746e-07
 5.482782e-07
 3.758698e-08
 2.102641e-08
 2.075354e-07
 8.779659e-07
 -1.736861e-08
 -1.347891e-06
 -3.354886e-07
 -2.829137e-07
 -4.478823e-07
 -1.505100e-06
 -1.400903e-07
 8.841058e-07
 8.826474e-07
 4.457211e-08
 -1.144900e-06
 -2.121509e-07
 1.730987e-05
 -1.496848e-07
 -1.281602e-07
 -1.465449e-07
 -1.489722e-07
 -1.448591e-07
 -1.329900e-07
 -1.092340e-07
 -7.484219e-08
 -4.003196e-08
 -1.513599e-08
 0.000000e+00
 0.000000e+00
 -3.801461e-08
 -7.300200e-08
 -1.006093e-07
 -1.166559e-07
 -1.200594e-07
 -1.022760e-07
 1.526851e-08
 6.431769e-07
 -2.137649e-07
 -1.497321e-06
 -4.837528e-07
 -4.174921e-07
 -4.597273e-07
 -5.067294e-07
 -5.239389e-07
 -5.088175e-07
 -5.029649e-07
 -5.515382e-07
 -5.851817e-07
 -5.804246e-07
 1.696635e-05
 -3.885381e-07
 -2.320039e-07
 -8.203217e-08
 1.060648e-07
 2.141431e-07
 -1.563698e-08
 -3.089893e-07
 -3.035559e-07
 -2.186711e-07
 -1.686581e-07
 -1.691091e-07
 1.731709e-05
 -1.810571e-07
 -1.108209e-06
 6.610719e-08
 8.819505e-07
 8.702330e-07
 -1.531437e-07
 -1.513197e-06
 -4.607642e-07
 -2.942596e-07
 -2.352497e-07
 -2.104696e-07
 -1.922913e-07
 -1.562227e-07
 -9.458151e-08
 -3.361803e-08
 -3.018252e-09
 0.000000e+00
 0.000000e+00
 -4.720151e-08
 -9.156958e-08
 -1.241098e-07
 -1.309097e-07
 -1.128631e-07
 -9.997979e-08
 -1.275082e-07
 -1.381118e-07
 -1.469184e-07
 -2.379594e-07
 -3.173462e-07
 -3.543569e-07
 -3.983164e-07
 -4.312985e-07
 -4.453761e-07
 -4.418628e-07
 -4.286875e-07
 -3.938068e-07
 -2.452652e-07
 4.004719e-07
 -4.847792e-07
 -1.757878e-06
 -5.826280e-07
 -2.223928e-07
 6.084450e-09
 6.177258e-08
 -3.405430e-08
 -1.528437e-07
 -1.798314e-07
 -1.155490e-07
 7.248809e-08
 7.497645e-07
 -1.057629e-07
 -1.402814e-06
 -3.519745e-07
 1.748040e-05
 2.415305e-07
 1.943082e-07
 -1.790297e-07
 -5.135171e-07
 -4.915176e-07
 -3.636658e-07
 -2.916428e-07
 -2.685466e-07
 -2.720011e-07
 -2.364518e-07
 -1.143858e-07
 1.036253e-08
 4.108012e-08
 0.000000e+00
 0.000000e+00
 -5.806879e-08
 -1.204163e-07
 -1.757805e-07
 -1.766447e-07
 -1.006501e-07
 -5.528903e-08
 -2.024093e-07
 -1.334847e-06
 -1.636103e-07
 5.977418e-07
 -1.093526e-07
 -2.881670e-07
 -3.490184e-07
 -3.763341e-07
 -3.862626e-07
 -3.821896e-07
 -3.638066e-07
 -3.214407e-07
 -2.364563e-07
 -1.920091e-07
 -4.586895e-07
 -8.022774e-07
 -7.336547e-07
 -2.626622e-07
 9.668978e-08
 8.370287e-08
 -3.117040e-08
 -1.184284e-07
 -1.412978e-07
 -9.755312e-08
 -3.198092e-09
 8.565781e-08
 -1.637698e-08
 -1.080838e-07
 -4.279502e-07
 1.785307e-08
 -4.652609e-07
 -1.558272e-07
 -3.183413e-07
 -4.523600e-07
 -4.603414e-07
 -3.773818e-07
 -2.977530e-07
 -2.898854e-07
 -3.896425e-07
 -4.357149e-07
 -1.392233e-07
 1.774154e-07
 1.621070e-07
 0.000000e+00
 0.000000e+00
 -6.297239e-08
 -1.474452e-07
 -2.825868e-07
 -3.306554e-07
 -6.135061e-08
 1.731315e-07
 1.155723e-07
 -4.160471e-08
 1.731153e-05
 -2.312073e-07
 -2.572410e-07
 -3.034792e-07
 -3.256073e-07
 -3.375350e-07
 -3.409231e-07
 -3.352645e-07
 -3.200184e-07
 -2.958524e-07
 -2.751547e-07
 -3.044594e-07
 -4.384509e-07
 -6.751904e-07
 -1.704706e-06
 -2.752035e-07
 7.329183e-07
 1.294456e-07
 -5.784118e-08
 -1.552983e-07
 -1.744007e-07
 -1.214099e-07
 -1.434992e-07
 -2.451417e-07
 -5.026069e-08
 4.511169e-07
 5.970880e-07
 1.762610e-05
 -3.160523e-07
 -4.227041e-07
 -4.816668e-07
 -5.493777e-07
 -5.286768e-07
 -3.805219e-07
 -2.266701e-07
 -2.000055e-07
 -3.836039e-07
 -1.563025e-06
 -2.976050e-07
 8.524760e-07
 3.763298e-07
 0.000000e+00
 0.000000e+00
 -4.827019e-08
 -1.238949e-07
 -3.073029e-07
 -1.386044e-06
 -6.953924e-08
 8.684849e-07
 3.655581e-07
 8.210615e-07
 -1.515516e-07
 -1.501538e-06
 -4.682554e-07
 -3.370123e-07
 -3.108475e-07
 -3.071116e-07
 -3.046671e-07
 -2.979107e-07
 -2.863874e-07
 -2.735837e-07
 -2.696069e-07
 -2.905617e-07
 -3.397287e-07
 -3.718984e-07
 -3.690701e-07
 1.722185e-05
 -1.143179e-07
 -6.431766e-08
 -1.401394e-07
 -2.691302e-07
 -3.141563e-07
 -7.425287e-08
 -1.072307e-08
 -1.261945e-06
 -1.059015e-06
 1.256823e-06
 2.076747e-06
 2.044499e-07
 -1.508249e-06
 -6.403946e-07
 -6.198007e-07
 -7.438592e-07
 -7.628198e-07
 -3.876922e-07
 -7.839478e-09
 6.603669e-08
 3.161625e-08
 -1.949561e-07
 1.615094e-05
 -3.686616e-08
 8.319288e-07
 0.000000e+00
 0.000000e+00
 -1.212601e-08
 -2.198561e-08
 -2.019619e-08
 -6.175362e-08
 1.738693e-05
 -7.027388e-08
 -2.967936e-10
 3.062127e-08
 -1.509970e-07
 -3.757196e-07
 -3.604375e-07
 -2.964559e-07
 -2.808076e-07
 -2.773255e-07
 -2.733935e-07
 -2.658611e-07
 -2.551583e-07
 -2.440853e-07
 -2.376150e-07
 -2.400802e-07
 -2.445130e-07
 -1.931483e-07
 4.249193e-07
 -1.852009e-07
 -1.240882e-06
 -2.203555e-07
 -1.724125e-07
 -3.017737e-07
 -1.332479e-06
 2.974102e-08
 9.981814e-07
 3.817446e-07
 1.768922e-05
 1.769663e-05
 2.385026e-07
 -9.302302e-08
 -5.035032e-07
 -5.866796e-07
 -6.236036e-07
 -8.791552e-07
 -1.998623e-06
 -4.786021e-07
 6.859264e-07
 3.519366e-07
 5.422497e-07
 1.091179e-06
 6.364414e-08
 1.616805e-05
 -2.266176e-07
 0.000000e+00
 0.000000e+00
 2.245979e-08
 7.255878e-08
 2.280342e-07
 8.521542e-07
 -8.432593e-08
 -1.452340e-06
 -4.949659e-07
 -4.002338e-07
 -1.847507e-07
 -4.696078e-08
 -1.367687e-07
 -2.144418e-07
 -2.424493e-07
 -2.492728e-07
 -2.462037e-07
 -2.373465e-07
 -2.247268e-07
 -2.100823e-07
 -1.952271e-07
 -1.820751e-07
 -1.779821e-07
 -2.419669e-07
 -1.242349e-06
 -1.505279e-07
 5.002658e-07
 -7.955158e-08
 -9.092938e-08
 -2.245767e-08
 2.900145e-08
 1.761167e-05
 4.115350e-07
 1.272294e-06
 1.002087e-06
 -1.235187e-06
 -1.551361e-06
 -4.719962e-07
 -4.140768e-07
 -4.206762e-07
 -4.387561e-07
 -5.695766e-07
 -1.685742e-06
 1.695394e-05
 -6.298396e-07
 1.436222e-07
 1.060122e-06
 6.908725e-07
 1.006997e-06
 -1.881809e-07
 -1.410138e-06
 0.000000e+00
 0.000000e+00
 3.516018e-08
 8.880956e-08
 1.790658e-07
 2.212832e-07
 -4.900416e-08
 -3.934173e-07
 -5.458383e-07
 -1.538078e-06
 -2.255172e-07
 6.496639e-07
 -1.196336e-08
 -1.776485e-07
 -2.223378e-07
 -2.301172e-07
 -2.245345e-07
 -2.125807e-07
 -1.963553e-07
 -1.762397e-07
 -1.514012e-07
 -1.194415e-07
 -7.704995e-08
 -2.455263e-08
 -5.723249e-08
 1.732182e-05
 -2.154934e-07
 -1.651250e-07
 -5.766700e-08
 1.970216e-07
 9.467921e-07
 1.742532e-07
 -9.571215e-07
 2.781805e-07
 2.547384e-07
 -2.390736e-07
 -5.193307e-07
 -4.397151e-07
 -3.295536e-07
 -2.592026e-07
 -1.620023e-07
 5.335115e-08
 6.939071e-07
 1.727097e-05
 -1.542918e-06
 1.696329e-05
 -2.948455e-07
 1.351159e-07
 3.327400e-07
 -1.736549e-08
 -2.568933e-07
 0.000000e+00
 0.000000e+00
 3.036896e-08
 6.409161e-08
 9.182255e-08
 7.271433e-08
 -2.958802e-08
 -1.417524e-07
 -1.703936e-07
 -2.016852e-07
 1.724831e-05
 -2.287125e-07
 -2.142312e-07
 -2.332144e-07
 -2.316906e-07
 -2.222048e-07
 -2.085999e-07
 -1.918604e-07
 -1.716965e-07
 -1.468424e-07
 -1.144191e-07
 -6.771447e-08
 1.176176e-08
 1.916153e-07
 8.227196e-07
 -1.209763e-07
 -1.467374e-06
 -3.838122e-07
 -1.316992e-07
 9.540952e-08
 2.857515e-07
 1.737710e-07
 -8.355373e-09
 4.404342e-08
 3.585938e-08
 -1.279294e-07
 -2.572209e-07
 -2.686834e-07
 -2.133872e-07
 -1.241892e-07
 2.785306e-08
 3.414131e-07
 1.115370e-06
 1.365614e-07
 -8.462834e-07
 -7.917046e-07
 -2.874850e-06
 -4.077395e-07
 5.592711e-07
 -1.762273e-07
 -1.825280e-07
 0.000000e+00
 0.000000e+00
 2.066544e-08
 3.890070e-08
 4.733370e-08
 3.463559e-08
 4.278008e-09
 7.950457e-10
 1.259315e-07
 7.428734e-07
 -1.857942e-07
 -1.521416e-06
 -4.669485e-07
 -3.052010e-07
 -2.479529e-07
 -2.180055e-07
 -1.956177e-07
 -1.744248e-07
 -1.514930e-07
 -1.244802e-07
 -9.025642e-08
 -4.336342e-08
 2.626730e-08
 1.301198e-07
 1.801278e-07
 -8.046345e-08
 -3.803905e-07
 -3.543606e-07
 -2.151232e-07
 -6.674876e-08
 9.688796e-08
 1.590617e-07
 1.126836e-07
 6.122439e-08
 2.932325e-09
 -7.828273e-08
 -1.420567e-07
 -1.553453e-07
 -1.200525e-07
 -4.356694e-08
 8.103986e-08
 2.614336e-07
 3.832885e-07
 1.676208e-07
 -1.337707e-07
 -3.335552e-07
 -4.969575e-07
 1.703648e-05
 -4.531110e-07
 -1.484786e-06
 -3.123148e-07
 0.000000e+00
 0.000000e+00
 1.247234e-08
 2.224916e-08
 2.599057e-08
 2.222117e-08
 1.829794e-08
 3.581486e-08
 1.004969e-07
 1.311650e-07
 -1.327461e-07
 -4.314036e-07
 -4.115592e-07
 -3.026746e-07
 -2.433776e-07
 -2.078660e-07
 -1.818759e-07
 -1.587985e-07
 -1.352455e-07
 -1.089710e-07
 -7.799220e-08
 -4.058048e-08
 2.517412e-09
 3.788332e-08
 2.182284e-08
 -8.276123e-08
 -2.037692e-07
 -2.630564e-07
 -3.148394e-07
 -2.804125e-07
 3.876495e-08
 2.816735e-07
 2.050090e-07
 8.642566e-08
 7.634776e-09
 -4.963650e-08
 -8.516691e-08
 -9.082117e-08
 -6.467633e-08
 -9.453247e-09
 6.949200e-08
 1.521799e-07
 1.842712e-07
 1.208343e-07
 3.807171e-08
 8.881207e-08
 6.797735e-07
 -1.932273e-07
 -1.430543e-06
 -3.400292e-07
 1.731814e-05
 0.000000e+00
 0.000000e+00
 6.777450e-09
 1.177782e-08
 1.364083e-08
 1.271792e-08
 1.260272e-08
 1.814331e-08
 2.255211e-08
 -1.372735e-08
 -1.269780e-07
 -2.439409e-07
 -2.763679e-07
 -2.510467e-07
 -2.174851e-07
 -1.893843e-07
 -1.656915e-07
 -1.438093e-07
 -1.217454e-07
 -9.816451e-08
 -7.239472e-08
 -4.502544e-08
 -1.977115e-08
 -6.578737e-09
 -2.048293e-08
 -6.568875e-08
 -1.220845e-07
 -1.817010e-07
 -3.248495e-07
 -1.360212e-06
 -1.969188e-08
 8.960364e-07
 2.481019e-07
 6.831811e-08
 -3.949614e-09
 -4.165177e-08
 -5.978941e-08
 -5.884329e-08
 -3.839742e-08
 -8.736600e-10
 4.684484e-08
 9.040170e-08
 1.100304e-07
 1.006351e-07
 9.474345e-08
 1.442570e-07
 1.980380e-07
 2.829919e-08
 -3.520434e-08
 7.287772e-07
 1.403687e-07
 0.000000e+00
 0.000000e+00
 2.898100e-09
 4.706798e-09
 4.698564e-09
 2.899866e-09
 -8.695784e-11
 -5.170422e-09
 -1.903878e-08
 -5.426346e-08
 -1.131617e-07
 -1.707534e-07
 -1.993397e-07
 -1.989809e-07
 -1.846236e-07
 -1.664518e-07
 -1.478314e-07
 -1.291089e-07
 -1.098572e-07
 -8.972271e-08
 -6.886027e-08
 -4.845054e-08
 -3.138620e-08
 -2.238337e-08
 -2.551226e-08
 -3.856975e-08
 -5.072258e-08
 -4.977642e-08
 -2.562226e-08
 -4.091240e-08
 1.742759e-05
 -2.957475e-08
 -6.006002e-09
 -2.991539e-08
 -4.292596e-08
 -5.136669e-08
 -5.360845e-08
 -4.688227e-08
 -2.985309e-08
 -3.806194e-09
 2.681229e-08
 5.464707e-08
 7.264988e-08
 8.111510e-08
 9.081651e-08
 1.089860e-07
 1.141604e-07
 9.022837e-08
 1.299204e-07
 2.464585e-07
 1.783210e-07
 0.000000e+00
 0.000000e+00
 1.643999e-10
 -4.104097e-10
 -2.303041e-09
 -5.891847e-09
 -1.169390e-08
 -2.126159e-08
 -3.789328e-08
 -6.482974e-08
 -9.991993e-08
 -1.330763e-07
 -1.537274e-07
 -1.594110e-07
 -1.543541e-07
 -1.435417e-07
 -1.299812e-07
 -1.149590e-07
 -9.893258e-08
 -8.217190e-08
 -6.516618e-08
 -4.890696e-08
 -3.496333e-08
 -2.493934e-08
 -1.878394e-08
 -1.215833e-08
 6.283971e-09
 6.168329e-08
 2.305721e-07
 8.743159e-07
 -3.523691e-08
 -1.356656e-06
 -2.951979e-07
 -1.348079e-07
 -8.557512e-08
 -6.715037e-08
 -5.667351e-08
 -4.567596e-08
 -3.086193e-08
 -1.187757e-08
 9.458718e-09
 3.001762e-08
 4.708144e-08
 6.044719e-08
 7.225189e-08
 8.260496e-08
 8.733198e-08
 8.970868e-08
 1.060474e-07
 1.215023e-07
 8.387475e-08
 0.000000e+00
 0.000000e+00
 -1.800862e-09
 -4.166115e-09
 -7.612165e-09
 -1.263793e-08
 -1.989638e-08
 -3.042235e-08
 -4.548998e-08
 -6.552900e-08
 -8.848174e-08
 -1.096549e-07
 -1.243211e-07
 -1.305661e-07
 -1.294230e-07
 -1.230857e-07
 -1.134649e-07
 -1.017889e-07
 -8.878121e-08
 -7.495393e-08
 -6.083772e-08
 -4.708904e-08
 -3.437863e-08
 -2.289922e-08
 -1.139013e-08
 4.173744e-09
 3.204236e-08
 8.647289e-08
 1.837581e-07
 2.391178e-07
 -6.903506e-09
 -2.934268e-07
 -2.673829e-07
 -1.582971e-07
 -1.039015e-07
 -7.678047e-08
 -6.098840e-08
 -4.874792e-08
 -3.640684e-08
 -2.254831e-08
 -7.072875e-09
 9.363915e-09
 2.575858e-08
 4.100965e-08
 5.388645e-08
 6.290649e-08
 6.733039e-08
 6.930106e-08
 7.112738e-08
 6.592504e-08
 4.145452e-08
 0.000000e+00
 0.000000e+00
 -3.191589e-09
 -6.833614e-09
 -1.136386e-08
 -1.722366e-08
 -2.490161e-08
 -3.492731e-08
 -4.765708e-08
 -6.277410e-08
 -7.880742e-08
 -9.330974e-08
 -1.038873e-07
 -1.092820e-07
 -1.096042e-07
 -1.057845e-07
 -9.891828e-08
 -8.991727e-08
 -7.945575e-08
 -6.805147e-08
 -5.615484e-08
 -4.416808e-08
 -3.233088e-08
 -2.042830e-08
 -7.360781e-09
 9.204253e-09
 3.254299e-08
 6.422359e-08
 9.322942e-08
 7.737006e-08
 -2.037143e-08
 -1.267641e-07
 -1.535725e-07
 -1.274534e-07
 -9.741374e-08
 -7.635199e-08
 -6.237807e-08
 -5.226988e-08
 -4.368064e-08
 -3.495823e-08
 -2.462028e-08
 -1.125550e-08
 5.567112e-09
 2.387377e-08
 3.942864e-08
 4.841654e-08
 5.016382e-08
 4.706420e-08
 4.155534e-08
 3.295713e-08
 1.885796e-08
 0.000000e+00
 0.000000e+00
 -4.128849e-09
 -8.612359e-09
 -1.379472e-08
 -2.000407e-08
 -2.754014e-08
 -3.661786e-08
 -4.722415e-08
 -5.891030e-08
 -7.067090e-08
 -8.110833e-08
 -8.888940e-08
 -9.320806e-08
 -9.394383e-08
 -9.149039e-08
 -8.646347e-08
 -7.948010e-08
 -7.106381e-08
 -6.163708e-08
 -5.154029e-08
 -4.102648e-08
 -3.020003e-08
 -1.890265e-08
 -6.623086e-09
 7.361552e-09
 2.318589e-08
 3.822720e-08
 4.359555e-08
 2.498134e-08
 -2.087741e-08
 -6.940097e-08
 -9.303178e-08
 -9.179564e-08
 -8.043516e-08
 -6.883371e-08
 -6.009082e-08
 -5.439502e-08
 -5.110479e-08
 -4.896262e-08
 -4.533261e-08
 -3.578180e-08
 -1.657879e-08
 9.558231e-09
 3.215467e-08
 4.177259e-08
 3.787322e-08
 2.655885e-08
 1.463683e-08
 6.179661e-09
 1.851951e-09
 0.000000e+00
 0.000000e+00
 -4.709492e-09
 -9.689615e-09
 -1.519504e-08
 -2.144630e-08
 -2.860154e-08
 -3.670524e-08
 -4.560965e-08
 -5.489681e-08
 -6.386797e-08
 -7.166129e-08
 -7.747860e-08
 -8.080582e-08
 -8.150695e-08
 -7.976607e-08
 -7.594705e-08
 -7.045833e-08
 -6.366936e-08
 -5.587990e-08
 -4.731980e-08
 -3.815365e-08
 -2.847581e-08
 -1.830728e-08
 -7.650780e-09
 3.280260e-09
 1.351034e-08
 2.044144e-08
 1.947529e-08
 6.222976e-09
 -1.795115e-08
 -4.340829e-08
 -5.979806e-08
 -6.474129e-08
 -6.248229e-08
 -5.805507e-08
 -5.466799e-08
 -5.404019e-08
 -5.715111e-08
 -6.406987e-08
 -7.193844e-08
 -7.115610e-08
 -4.735238e-08
 -1.002655e-09
 3.973329e-08
 4.983469e-08
 3.300964e-08
 6.129312e-09
 -1.636601e-08
 -2.512548e-08
 -1.773578e-08
 0.000000e+00
 0.000000e+00
 -5.016872e-09
 -1.023613e-08
 -1.583979e-08
 -2.196652e-08
 -2.868264e-08
 -3.594503e-08
 -4.356160e-08
 -5.116859e-08
 -5.825360e-08
 -6.424169e-08
 -6.862561e-08
 -7.108537e-08
 -7.154169e-08
 -7.012565e-08
 -6.709226e-08
 -6.272435e-08
 -5.726366e-08
 -5.088286e-08
 -4.369380e-08
 -3.577896e-08
 -2.723467e-08
 -1.822566e-08
 -9.068248e-09
 -3.754174e-10
 6.727871e-09
 1.045155e-08
 8.661960e-09
 1.580973e-10
 -1.357493e-08
 -2.821081e-08
 -3.923767e-08
 -4.487764e-08
 -4.630671e-08
 -4.598588e-08
 -4.638915e-08
 -4.984428e-08
 -5.898543e-08
 -7.701920e-08
 -1.056891e-07
 -1.320146e-07
 -1.071726e-07
 -5.168851e-09
 8.446250e-08
 8.670698e-08
 3.731351e-08
 -1.944862e-08
 -6.225275e-08
 -7.416183e-08
 -4.840982e-08
 0.000000e+00
 0.000000e+00
 -5.118541e-09
 -1.039118e-08
 -1.594966e-08
 -2.187926e-08
 -2.819223e-08
 -3.480071e-08
 -4.149641e-08
 -4.795048e-08
 -5.374772e-08
 -5.845954e-08
 -6.173944e-08
 -6.340508e-08
 -6.346962e-08
 -6.210637e-08
 -5.956390e-08
 -5.607060e-08
 -5.176731e-08
 -4.668889e-08
 -4.079570e-08
 -3.404441e-08
 -2.648173e-08
 -1.833935e-08
 -1.010668e-08
 -2.564428e-09
 3.236961e-09
 6.106446e-09
 5.057469e-09
 -1.012837e-10
 -8.254568e-09
 -1.717829e-08
 -2.461565e-08
 -2.941687e-08
 -3.184658e-08
 -3.315143e-08
 -3.511136e-08
 -4.009830e-08
 -5.190288e-08
 -7.783024e-08
 -1.330932e-07
 -2.444634e-07
 -2.739832e-07
 7.245938e-09
 2.440927e-07
 1.717157e-07
 4.399819e-08
 -5.847429e-08
 -1.404773e-07
 -1.657694e-07
 -1.024278e-07
 0.000000e+00
 0.000000e+00
 -5.062433e-09
 -1.025274e-08
 -1.567628e-08
 -2.139179e-08
 -2.738572e-08
 -3.354805e-08
 -3.965727e-08
 -4.538627e-08
 -5.034128e-08
 -5.413818e-08
 -5.650212e-08
 -5.735411e-08
 -5.683815e-08
 -5.526204e-08
 -5.297034e-08
 -5.020774e-08
 -4.703256e-08
 -4.330843e-08
 -3.877063e-08
 -3.315273e-08
 -2.635257e-08
 -1.859324e-08
 -1.050227e-08
 -3.042176e-09
 2.703339e-09
 5.812358e-09
 5.802419e-09
 2.849213e-09
 -2.155972e-09