<VTKFile type="UnstructuredGrid"  version="0.1"   >
<UnstructuredGrid>  
<Piece  NumberOfPoints="     2601"  NumberOfCells="     5000">  
<Points>  
<DataArray  type="Float64"  NumberOfComponents="3"  format="ascii">  
 0.000000 0.000000 0.000000 
 0.020000 0.000000 0.000000 
 0.040000 0.000000 0.000000 
 0.060000 0.000000 0.000000 
 0.080000 0.000000 0.000000 
 0.100000 0.000000 0.000000 
 0.120000 0.000000 0.000000 
 0.140000 0.000000 0.000000 
 0.160000 0.000000 0.000000 
 0.180000 0.000000 0.000000 
 0.200000 0.000000 0.000000 
 0.220000 0.000000 0.000000 
 0.240000 0.000000 0.000000 
 0.260000 0.000000 0.000000 
 0.280000 0.000000 0.000000 
 0.300000 0.000000 0.000000 
 0.320000 0.000000 0.000000 
 0.340000 0.000000 0.000000 
 0.360000 0.000000 0.000000 
 0.380000 0.000000 0.000000 
 0.400000 0.000000 0.000000 
 0.420000 0.000000 0.000000 
 0.440000 0.000000 0.000000 
 0.460000 0.000000 0.000000 
 0.480000 0.000000 0.000000 
 0.500000 0.000000 0.000000 
 0.520000 0.000000 0.000000 
 0.540000 0.000000 0.000000 
 0.560000 0.000000 0.000000 
 0.580000 0.000000 0.000000 
 0.600000 0.000000 0.000000 
 0.620000 0.000000 0.000000 
 0.640000 0.000000 0.000000 
 0.660000 0.000000 0.000000 
 0.680000 0.000000 0.000000 
 0.700000 0.000000 0.000000 
 0.720000 0.000000 0.000000 
 0.740000 0.000000 0.000000 
 0.760000 0.000000 0.000000 
 0.780000 0.000000 0.000000 
 0.800000 0.000000 0.000000 
 0.820000 0.000000 0.000000 
 0.840000 0.000000 0.000000 
 0.860000 0.000000 0.000000 
 0.880000 0.000000 0.000000 
 0.900000 0.000000 0.000000 
 0.920000 0.000000 0.000000 
 0.940000 0.000000 0.000000 
 0.960000 0.000000 0.000000 
 0.980000 0.000000 0.000000 
 1.000000 0.000000 0.000000 
 0.000000 0.020000 0.000000 
 0.020000 0.020000 0.000000 
 0.040000 0.020000 0.000000 
 0.060000 0.020000 0.000000 
 0.080000 0.020000 0.000000 
 0.100000 0.020000 0.000000 
 0.120000 0.020000 0.000000 
 0.140000 0.020000 0.000000 
 0.160000 0.020000 0.000000 
 0.180000 0.020000 0.000000 
 0.200000 0.020000 0.000000 
 0.220000 0.020000 0.000000 
 0.240000 0.020000 0.000000 
 0.260000 0.020000 0.000000 
 0.280000 0.020000 0.000000 
 0.300000 0.020000 0.000000 
 0.320000 0.020000 0.000000 
 0.340000 0.020000 0.000000 
 0.360000 0.020000 0.000000 
 0.380000 0.020000 0.000000 
 0.400000 0.020000 0.000000 
 0.420000 0.020000 0.000000 
 0.440000 0.020000 0.000000 
 0.460000 0.020000 0.000000 
 0.480000 0.020000 0.000000 
 0.500000 0.020000 0.000000 
 0.520000 0.020000 0.000000 
 0.540000 0.020000 0.000000 
 0.560000 0.020000 0.000000 
 0.580000 0.020000 0.000000 
 0.600000 0.020000 0.000000 
 0.620000 0.020000 0.000000 
 0.640000 0.020000 0.000000 
 0.660000 0.020000 0.000000 
 0.680000 0.020000 0.000000 
 0.700000 0.020000 0.000000 
 0.720000 0.020000 0.000000 
 0.740000 0.020000 0.000000 
 0.760000 0.020000 0.000000 
 0.780000 0.020000 0.000000 
 0.800000 0.020000 0.000000 
 0.820000 0.020000 0.000000 
 0.840000 0.020000 0.000000 
 0.860000 0.020000 0.000000 
 0.880000 0.020000 0.000000 
 0.900000 0.020000 0.000000 
 0.920000 0.020000 0.000000 
 0.940000 0.020000 0.000000 
 0.960000 0.020000 0.000000 
 0.980000 0.020000 0.000000 
 1.000000 0.020000 0.000000 
 0.000000 0.040000 0.000000 
 0.020000 0.040000 0.000000 
 0.040000 0.040000 0.000000 
 0.060000 0.040000 0.000000 
 0.080000 0.040000 0.000000 
 0.100000 0.040000 0.000000 
 0.120000 0.040000 0.000000 
 0.140000 0.040000 0.000000 
 0.160000 0.040000 0.000000 
 0.180000 0.040000 0.000000 
 0.200000 0.040000 0.000000 
 0.220000 0.040000 0.000000 
 0.240000 0.040000 0.000000 
 0.260000 0.040000 0.000000 
 0.280000 0.040000 0.000000 
 0.300000 0.040000 0.000000 
 0.320000 0.040000 0.000000 
 0.340000 0.040000 0.000000 
 0.360000 0.040000 0.000000 
 0.380000 0.040000 0.000000 
 0.400000 0.040000 0.000000 
 0.420000 0.040000 0.000000 
 0.440000 0.040000 0.000000 
 0.460000 0.040000 0.000000 
 0.480000 0.040000 0.000000 
 0.500000 0.040000 0.000000 
 0.520000 0.040000 0.000000 
 0.540000 0.040000 0.000000 
 0.560000 0.040000 0.000000 
 0.580000 0.040000 0.000000 
 0.600000 0.040000 0.000000 
 0.620000 0.040000 0.000000 
 0.640000 0.040000 0.000000 
 0.660000 0.040000 0.000000 
 0.680000 0.040000 0.000000 
 0.700000 0.040000 0.000000 
 0.720000 0.040000 0.000000 
 0.740000 0.040000 0.000000 
 0.760000 0.040000 0.000000 
 0.780000 0.040000 0.000000 
 0.800000 0.040000 0.000000 
 0.820000 0.040000 0.000000 
 0.840000 0.040000 0.000000 
 0.860000 0.040000 0.000000 
 0.880000 0.040000 0.000000 
 0.900000 0.040000 0.000000 
 0.920000 0.040000 0.000000 
 0.940000 0.040000 0.000000 
 0.960000 0.040000 0.000000 
 0.980000 0.040000 0.000000 
 1.000000 0.040000 0.000000 
 0.000000 0.060000 0.000000 
 0.020000 0.060000 0.000000 
 0.040000 0.060000 0.000000 
 0.060000 0.060000 0.000000 
 0.080000 0.060000 0.000000 
 0.100000 0.060000 0.000000 
 0.120000 0.060000 0.000000 
 0.140000 0.060000 0.000000 
 0.160000 0.060000 0.000000 
 0.180000 0.060000 0.000000 
 0.200000 0.060000 0.000000 
 0.220000 0.060000 0.000000 
 0.240000 0.060000 0.000000 
 0.260000 0.060000 0.000000 
 0.280000 0.060000 0.000000 
 0.300000 0.060000 0.000000 
 0.320000 0.060000 0.000000 
 0.340000 0.060000 0.000000 
 0.360000 0.060000 0.000000 
 0.380000 0.060000 0.000000 
 0.400000 0.060000 0.000000 
 0.420000 0.060000 0.000000 
 0.440000 0.060000 0.000000 
 0.460000 0.060000 0.000000 
 0.480000 0.060000 0.000000 
 0.500000 0.060000 0.000000 
 0.520000 0.060000 0.000000 
 0.540000 0.060000 0.000000 
 0.560000 0.060000 0.000000 
 0.580000 0.060000 0.000000 
 0.600000 0.060000 0.000000 
 0.620000 0.060000 0.000000 
 0.640000 0.060000 0.000000 
 0.660000 0.060000 0.000000 
 0.680000 0.060000 0.000000 
 0.700000 0.060000 0.000000 
 0.720000 0.060000 0.000000 
 0.740000 0.060000 0.000000 
 0.760000 0.060000 0.000000 
 0.780000 0.060000 0.000000 
 0.800000 0.060000 0.000000 
 0.820000 0.060000 0.000000 
 0.840000 0.060000 0.000000 
 0.860000 0.060000 0.000000 
 0.880000 0.060000 0.000000 
 0.900000 0.060000 0.000000 
 0.920000 0.060000 0.000000 
 0.940000 0.060000 0.000000 
 0.960000 0.060000 0.000000 
 0.980000 0.060000 0.000000 
 1.000000 0.060000 0.000000 
 0.000000 0.080000 0.000000 
 0.020000 0.080000 0.000000 
 0.040000 0.080000 0.000000 
 0.060000 0.080000 0.000000 
 0.080000 0.080000 0.000000 
 0.100000 0.080000 0.000000 
 0.120000 0.080000 0.000000 
 0.140000 0.080000 0.000000 
 0.160000 0.080000 0.000000 
 0.180000 0.080000 0.000000 
 0.200000 0.080000 0.000000 
 0.220000 0.080000 0.000000 
 0.240000 0.080000 0.000000 
 0.260000 0.080000 0.000000 
 0.280000 0.080000 0.000000 
 0.300000 0.080000 0.000000 
 0.320000 0.080000 0.000000 
 0.340000 0.080000 0.000000 
 0.360000 0.080000 0.000000 
 0.380000 0.080000 0.000000 
 0.400000 0.080000 0.000000 
 0.420000 0.080000 0.000000 
 0.440000 0.080000 0.000000 
 0.460000 0.080000 0.000000 
 0.480000 0.080000 0.000000 
 0.500000 0.080000 0.000000 
 0.520000 0.080000 0.000000 
 0.540000 0.080000 0.000000 
 0.560000 0.080000 0.000000 
 0.580000 0.080000 0.000000 
 0.600000 0.080000 0.000000 
 0.620000 0.080000 0.000000 
 0.640000 0.080000 0.000000 
 0.660000 0.080000 0.000000 
 0.680000 0.080000 0.000000 
 0.700000 0.080000 0.000000 
 0.720000 0.080000 0.000000 
 0.740000 0.080000 0.000000 
 0.760000 0.080000 0.000000 
 0.780000 0.080000 0.000000 
 0.800000 0.080000 0.000000 
 0.820000 0.080000 0.000000 
 0.840000 0.080000 0.000000 
 0.860000 0.080000 0.000000 
 0.880000 0.080000 0.000000 
 0.900000 0.080000 0.000000 
 0.920000 0.080000 0.000000 
 0.940000 0.080000 0.000000 
 0.960000 0.080000 0.000000 
 0.980000 0.080000 0.000000 
 1.000000 0.080000 0.000000 
 0.000000 0.100000 0.000000 
 0.020000 0.100000 0.000000 
 0.040000 0.100000 0.000000 
 0.060000 0.100000 0.000000 
 0.080000 0.100000 0.000000 
 0.100000 0.100000 0.000000 
 0.120000 0.100000 0.000000 
 0.140000 0.100000 0.000000 
 0.160000 0.100000 0.000000 
 0.180000 0.100000 0.000000 
 0.200000 0.100000 0.000000 
 0.220000 0.100000 0.000000 
 0.240000 0.100000 0.000000 
 0.260000 0.100000 0.000000 
 0.280000 0.100000 0.000000 
 0.300000 0.100000 0.000000 
 0.320000 0.100000 0.000000 
 0.340000 0.100000 0.000000 
 0.360000 0.100000 0.000000 
 0.380000 0.100000 0.000000 
 0.400000 0.100000 0.000000 
 0.420000 0.100000 0.000000 
 0.440000 0.100000 0.000000 
 0.460000 0.100000 0.000000 
 0.480000 0.100000 0.000000 
 0.500000 0.100000 0.000000 
 0.520000 0.100000 0.000000 
 0.540000 0.100000 0.000000 
 0.560000 0.100000 0.000000 
 0.580000 0.100000 0.000000 
 0.600000 0.100000 0.000000 
 0.620000 0.100000 0.000000 
 0.640000 0.100000 0.000000 
 0.660000 0.100000 0.000000 
 0.680000 0.100000 0.000000 
 0.700000 0.100000 0.000000 
 0.720000 0.100000 0.000000 
 0.740000 0.100000 0.000000 
 0.760000 0.100000 0.000000 
 0.780000 0.100000 0.000000 
 0.800000 0.100000 0.000000 
 0.820000 0.100000 0.000000 
 0.840000 0.100000 0.000000 
 0.860000 0.100000 0.000000 
 0.880000 0.100000 0.000000 
 0.900000 0.100000 0.000000 
 0.920000 0.100000 0.000000 
 0.940000 0.100000 0.000000 
 0.960000 0.100000 0.000000 
 0.980000 0.100000 0.000000 
 1.000000 0.100000 0.000000 
 0.000000 0.120000 0.000000 
 0.020000 0.120000 0.000000 
 0.040000 0.120000 0.000000 
 0.060000 0.120000 0.000000 
 0.080000 0.120000 0.000000 
 0.100000 0.120000 0.000000 
 0.120000 0.120000 0.000000 
 0.140000 0.120000 0.000000 
 0.160000 0.120000 0.000000 
 0.180000 0.120000 0.000000 
 0.200000 0.120000 0.000000 
 0.220000 0.120000 0.000000 
 0.240000 0.120000 0.000000 
 0.260000 0.120000 0.000000 
 0.280000 0.120000 0.000000 
 0.300000 0.120000 0.000000 
 0.320000 0.120000 0.000000 
 0.340000 0.120000 0.000000 
 0.360000 0.120000 0.000000 
 0.380000 0.120000 0.000000 
 0.400000 0.120000 0.000000 
 0.420000 0.120000 0.000000 
 0.440000 0.120000 0.000000 
 0.460000 0.120000 0.000000 
 0.480000 0.120000 0.000000 
 0.500000 0.120000 0.000000 
 0.520000 0.120000 0.000000 
 0.540000 0.120000 0.000000 
 0.560000 0.120000 0.000000 
 0.580000 0.120000 0.000000 
 0.600000 0.120000 0.000000 
[...]
<PointData  Scalars="U"> 
<DataArray  type="Float64"  Name="U"  format="ascii"> 
 0.000000e+00
 0.000000e+00
 0.000000e+00
 0.000000e+00
 0.000000e+00
 0.000000e+00
 0.000000e+00
 0.000000e+00
 0.000000e+00
 0.000000e+00
 0.000000e+00
 0.000000e+00
 0.000000e+00
 0.000000e+00
 0.000000e+00
 0.000000e+00
 0.000000e+00
 0.000000e+00
 0.000000e+00
 0.000000e+00
 0.000000e+00
 0.000000e+00
 0.000000e+00
 0.000000e+00
 0.000000e+00
 0.000000e+00
 0.000000e+00
 0.000000e+00
 0.000000e+00
 0.000000e+00
 0.000000e+00
 0.000000e+00
 0.000000e+00
 0.000000e+00
 0.000000e+00
 0.000000e+00
 0.000000e+00
 0.000000e+00
 0.000000e+00
 0.000000e+00
 0.000000e+00
 0.000000e+00
 0.000000e+00
 0.000000e+00
 0.000000e+00
 0.000000e+00
 0.000000e+00
 0.000000e+00
 0.000000e+00
 0.000000e+00
 0.000000e+00
 0.000000e+00
 -4.296658e-07
 -1.333839e-06
 -3.538617e-06
 -4.831740e-06
 -1.102838e-06
 3.419703e-07
 -7.825699e-09
 1.334049e-07
 1.540634e-07
 1.632568e-05
 -1.242652e-06
 1.799495e-05
 3.692667e-07
 -1.392332e-06
 -2.351062e-07
 6.202698e-07
 7.142949e-09
 -9.802616e-08
 -9.888778e-08
 -7.945853e-08
 -5.855582e-08
 -4.088495e-08
 -2.790602e-08
 -1.973823e-08
 -1.573605e-08
 -1.519144e-08
 -1.800892e-08
 -2.523749e-08
 -3.959138e-08
 -6.578750e-08
 -1.084098e-07
 -1.565563e-07
 -1.561239e-07
 -6.472654e-08
 3.696371e-08
 5.464845e-08
 1.135049e-08
 -6.560214e-09
 5.053242e-08
 1.089343e-07
 1.027734e-07
 6.716363e-08
 3.773535e-08
 2.019099e-08
 1.069020e-08
 5.649218e-09
 2.949394e-09
 1.459388e-09
 5.524669e-10
 0.000000e+00
 0.000000e+00
 -5.367230e-07
 -1.111069e-06
 -1.655984e-06
 -1.708351e-06
 1.625374e-05
 -7.376127e-07
 -3.545571e-07
 9.782642e-08
 1.213066e-06
 6.281572e-07
 1.714233e-05
 1.700027e-05
 -1.750858e-06
 -6.886394e-07
 1.695547e-05
 -4.137819e-07
 -3.164255e-07
 -2.666320e-07
 -2.105904e-07
 -1.588233e-07
 -1.135126e-07
 -7.686875e-08
 -5.086409e-08
 -3.530254e-08
 -2.812215e-08
 -2.721107e-08
 -3.188258e-08
 -4.372131e-08
 -6.758071e-08
 -1.136835e-07
 -2.014303e-07
 -3.594169e-07
 -4.338937e-07
 -1.423548e-07
 1.854227e-07
 1.802504e-07
 -6.712070e-09
 -1.187452e-07
 1.029570e-07
 3.080691e-07
 2.302299e-07
 1.220873e-07
 6.265846e-08
 3.256738e-08
 1.718968e-08
 9.117004e-09
 4.768296e-09
 2.363268e-09
 9.589514e-10
 0.000000e+00
 0.000000e+00
 -6.265079e-07
 -7.316499e-07
 -5.938047e-07
 -8.174862e-08
 -1.002141e-06
 -2.149993e-06
 -6.707387e-07
 -9.764542e-07
 7.525258e-07
 2.248388e-06
 1.014652e-06
 -1.657363e-06
 -2.052188e-06
 -1.439039e-07
 -6.949297e-07
 -1.844815e-06
 -6.774087e-07
 -4.365529e-07
 -3.171073e-07
 -2.319681e-07
 -1.597968e-07
 -1.017618e-07
 -6.302253e-08
 -4.249741e-08
 -3.449870e-08
 -3.402249e-08
 -3.910306e-08
 -5.102272e-08
 -7.482878e-08
 -1.222666e-07
 -2.225805e-07
 -4.676319e-07
 -1.663176e-06
 -3.713396e-07
 8.400552e-07
 4.302147e-07
 6.234315e-08
 -1.153340e-06
 8.882182e-08
 9.620604e-07
 3.025272e-07
 1.246126e-07
 6.005158e-08
 3.143555e-08
 1.697172e-08
 9.132684e-09
 4.769255e-09
 2.328942e-09
 9.319394e-10
 0.000000e+00
 0.000000e+00
 -1.845005e-06
 -6.322453e-07
 4.258878e-07
 -2.504505e-07
 -7.729574e-07
 -2.009221e-06
 -4.472339e-07
 7.805200e-07
 1.788577e-05
 3.942539e-07
 6.823863e-08
 -6.027040e-07
 -8.804182e-07
 -6.891822e-07
 -7.025122e-07
 -8.306135e-07
 -6.992212e-07
 -5.157569e-07
 -3.972019e-07
 -2.956805e-07
 -1.924258e-07
 -1.058897e-07
 -5.612259e-08
 -3.740596e-08
 -3.392039e-08
 -3.580472e-08
 -4.005447e-08
 -4.739515e-08
 -6.074339e-08
 -8.532209e-08
 -1.299173e-07
 -2.082031e-07
 -4.405575e-07
 1.596682e-05
 -7.645863e-08
 9.583684e-07
 3.379730e-07
 1.277787e-07
 1.752486e-05
 4.649755e-08
 6.616021e-08
 4.163701e-08
 2.799143e-08
 1.794773e-08
 1.071770e-08
 5.899786e-09
 2.946950e-09
 1.297548e-09
 4.565995e-10
 0.000000e+00
 0.000000e+00
 -1.936864e-06
 1.661402e-05
 1.592507e-07
 -3.472009e-07
 -4.682395e-07
 -4.599977e-07
 1.727744e-05
 6.297807e-07
 -1.162844e-07
 -1.430315e-06
 -5.208204e-07
 -6.041283e-07
 -7.010373e-07
 -6.891889e-07
 -6.713953e-07
 -6.611872e-07
 -6.042618e-07
 -5.297063e-07
 -4.656307e-07
 -3.691085e-07
 -2.082589e-07
 -6.717367e-08
 -1.678073e-08
 -1.862322e-08
 -2.916275e-08
 -3.577621e-08
 -3.823565e-08
 -3.811362e-08
 -3.599867e-08
 -2.928613e-08
 -4.180342e-09
 1.019827e-07
 6.370367e-07
 -3.373899e-07
 1.609205e-05
 -1.314996e-08
 2.919365e-07
 9.006937e-07
 5.038848e-09
 -1.284671e-06
 -2.067584e-07
 -4.774403e-08
 -7.161006e-09
 1.623200e-09
 2.020793e-09
 8.025210e-10
 -1.654754e-10
 -5.295993e-10
 -3.963257e-10
 0.000000e+00
 0.000000e+00
 -8.286384e-07
 1.613345e-05
 -2.032838e-06
 -7.052227e-07
 -3.387955e-07
 4.425768e-07
 -2.778433e-07
 -1.443985e-06
 -5.558269e-07
 -6.741233e-07
 -6.699250e-07
 -6.559814e-07
 -6.782898e-07
 -6.647777e-07
 -6.169871e-07
 -5.638319e-07
 -5.246132e-07
 -5.161223e-07
 -5.660023e-07
 -5.369786e-07
 -2.003441e-07
 8.957850e-08
 7.082258e-08
 2.490248e-09
 -2.980733e-08
 -4.002584e-08
 -3.882627e-08
 -3.040499e-08
 -1.451048e-08
 1.376332e-08
 6.639979e-08
 1.594387e-07
 2.073618e-07
 -4.695716e-07
 -3.434688e-07
 -6.994038e-07
 -8.618361e-08
 6.132110e-08
 -4.041330e-08
 -2.033813e-07
 -1.429599e-07
 -4.972786e-08
 -1.803124e-08
 -8.434469e-09
 -5.706084e-09
 -4.746540e-09
 -3.942408e-09
 -2.870160e-09
 -1.515476e-09
 0.000000e+00
 0.000000e+00
 -3.898100e-06
 -1.880735e-06
 -1.642527e-06
 -8.226574e-07
 -4.869705e-07
 -2.746298e-07
 -3.989573e-07
 -6.269681e-07
 -6.517952e-07
 -6.442844e-07
 -6.588265e-07
 -6.807670e-07
 -7.065031e-07
 -6.785139e-07
 -5.646994e-07
 -4.520340e-07
 -4.169958e-07
 -4.444889e-07
 -5.763148e-07
 -1.596557e-06
 -2.279861e-07
 7.272042e-07
 1.225596e-07
 -1.634615e-08
 -5.099470e-08
 -5.462891e-08
 -4.596879e-08
 -2.946563e-08
 -4.232591e-09
 3.414745e-08
 9.267539e-08
 1.743636e-07
 2.628105e-07
 1.827547e-07
 1.727964e-05
 -5.124502e-07
 -4.973593e-07
 -3.914103e-07
 -1.039402e-07
 9.763467e-08
 5.300747e-08
 3.023592e-09
 -1.079902e-08
 -1.303816e-08
 -1.214103e-08
 -1.030427e-08
 -8.044100e-09
 -5.511700e-09
 -2.800568e-09
 0.000000e+00
 0.000000e+00
 -4.712667e-06
 1.559271e-05
 -6.160197e-07
 -7.958116e-07
 -6.100347e-07
 -4.964817e-07
 -5.065930e-07
 -5.704525e-07
 -6.050050e-07
 -6.190060e-07
 -6.399271e-07
 -6.878042e-07
 -7.907369e-07
 -8.082681e-07
 -5.072718e-07
 -2.378835e-07
 -2.581652e-07
 -3.048727e-07
 -2.837753e-07
 -2.716945e-07
 1.723754e-05
 -1.786607e-07
 -1.192312e-07
 -1.120139e-07
 -9.687215e-08
 -7.972628e-08
 -6.020999e-08
 -3.669552e-08
 -6.558291e-09
 3.423319e-08
 9.186067e-08
 1.789866e-07
 3.460053e-07
 9.120813e-07
 -1.613099e-07
 -1.645747e-06
 -7.398947e-07
 -1.576935e-06
 -1.607251e-07
 7.865146e-07
 1.679894e-07
 2.399272e-08
 -1.241968e-08
 -1.994885e-08
 -1.931266e-08
 -1.624606e-08
 -1.241341e-08
 -8.332073e-09
 -4.175107e-09
 0.000000e+00
 0.000000e+00
 -2.867413e-07
 1.616257e-05
 -2.297677e-06
 -8.730260e-07
 -6.354398e-07
 -5.715671e-07
 -5.569676e-07
 -5.672585e-07
 -5.780321e-07
 -5.844457e-07
 -5.968177e-07
 -6.392277e-07
 -7.913020e-07
 -1.840720e-06
 -5.005521e-07
 4.381113e-07
 -1.579848e-07
 -2.339447e-07
 -6.466224e-08
 6.363293e-07
 -2.057355e-07
 -1.479891e-06
 -3.912010e-07
 -2.116601e-07
 -1.442033e-07
 -1.070554e-07
 -7.829308e-08
 -5.031512e-08
 -1.921980e-08
 1.812637e-08
 6.513599e-08
 1.264512e-07
 2.043870e-07
 2.034742e-07
 -1.222424e-07
 -4.615715e-07
 -4.074004e-07
 -2.560270e-07
 1.732889e-05
 -6.946311e-08
 -2.273729e-08
 -3.451732e-08
 -3.592067e-08
 -3.315847e-08
 -2.840034e-08
 -2.280711e-08
 -1.698603e-08
 -1.121198e-08
 -5.561976e-09
 0.000000e+00
 0.000000e+00
 4.057243e-07
 -1.250062e-06
 -2.191821e-06
 -2.605378e-07
 -5.847797e-07
 -5.983351e-07
 -5.810385e-07
 -5.682532e-07
 -5.577116e-07
 -5.452474e-07
 -5.298569e-07
 -5.104676e-07
 -4.784673e-07
 -4.895581e-07
 1.698746e-05
 -4.523122e-07
 -3.981993e-07
 -3.558366e-07
 -2.053278e-07
 -1.396714e-08
 -1.309464e-07
 -3.691755e-07
 -3.394306e-07
 -2.299841e-07
 -1.680588e-07
 -1.277551e-07
 -9.605601e-08
 -6.713873e-08
 -3.808952e-08
 -7.448725e-09
 2.451189e-08
 5.314827e-08
 6.001505e-08
 -2.588405e-10
 -1.510942e-07
 -2.622520e-07
 -9.523133e-08
 7.144910e-07
 -2.751731e-08
 -1.291436e-06
 -2.405827e-07
 -1.008555e-07
 -6.325040e-08
 -4.821822e-08
 -3.823442e-08
 -2.954299e-08
 -2.147999e-08
 -1.394960e-08
 -6.852374e-09
 0.000000e+00
 0.000000e+00
 1.719924e-05
 -6.978330e-07
 1.650270e-05
 -8.725129e-07
 -6.917840e-07
 -6.341012e-07
 -5.965643e-07
 -5.673636e-07
 -5.400119e-07
 -5.089849e-07
 -4.660896e-07
 -3.899904e-07
 -2.049727e-07
 4.524609e-07
 -4.439327e-07
 -1.755248e-06
 -6.989349e-07
 -5.859640e-07
 -5.014072e-07
 -1.794844e-07
 1.017953e-08
 -1.144211e-07
 -2.046609e-07
 -2.025535e-07
 -1.728048e-07
 -1.409182e-07
 -1.114471e-07
 -8.429570e-08
 -5.878922e-08
 -3.492003e-08
 -1.461629e-08
 -4.296822e-09
 -1.866662e-08
 -7.976693e-08
 -1.991675e-07
 -3.483362e-07
 -2.912970e-07
 1.471417e-07
 2.528347e-07
 -5.776493e-08
 -1.397187e-07
 -9.758728e-08
 -7.498218e-08
 -5.983875e-08
 -4.713303e-08
 -3.570586e-08
 -2.543084e-08
 -1.623693e-08
 -7.888067e-09
 0.000000e+00
 0.000000e+00
 -5.981187e-07
 -1.204242e-06
 -7.296686e-07
 -1.763740e-06
 -7.572220e-07
 -6.519378e-07
 -6.044983e-07
 -5.647527e-07
 -5.256956e-07
 -4.829622e-07
 -4.291901e-07
 -3.510262e-07
 -2.320695e-07
 -1.561375e-07
 -3.826331e-07
 -6.554696e-07
 -6.423183e-07
 -6.548292e-07
 -1.629403e-06
 -2.694616e-07
 6.412819e-07
 -9.524921e-09
 -1.666008e-07
 -1.925093e-07
 -1.771437e-07
 -1.511505e-07
 -1.244758e-07
 -9.991395e-08
 -7.813679e-08
 -5.951490e-08
 -4.520963e-08
 -3.885205e-08
 -4.930702e-08
 -9.394694e-08
 -2.067929e-07
 -4.829312e-07
 -1.571015e-06
 7.848269e-09
 1.067758e-06
 2.739878e-07
 -4.294748e-09
 -7.515192e-08
 -8.078448e-08
 -6.957421e-08
 -5.487521e-08
 -4.070808e-08
 -2.826789e-08
 -1.765352e-08
 -8.450249e-09
 0.000000e+00
 0.000000e+00
 -1.691480e-06
 -1.811944e-06
 8.828086e-08
 1.302424e-07
 -5.906941e-07
 -6.421101e-07
 -6.079869e-07
 -5.614244e-07
 -5.145629e-07
 -4.669812e-07
 -4.151709e-07
 -3.568506e-07
 -3.018878e-07
 -2.909125e-07
 -3.593411e-07
 -4.327719e-07
 -4.219653e-07
 -3.475862e-07
 -3.198564e-07
 1.717386e-05
 -2.698298e-07
 -2.331026e-07
 -2.348165e-07
 -2.158926e-07
 -1.891410e-07
 -1.610880e-07
 -1.351138e-07
 -1.127134e-07
 -9.444218e-08
 -8.016577e-08
 -6.872149e-08
 -5.799105e-08
 -4.781841e-08
 -4.694943e-08
 -8.202137e-08
 -2.285367e-07
 -1.334082e-06
 1.741128e-05
 8.088602e-07
 1.470410e-07
 -5.317661e-08
 -1.013459e-07
 -9.911145e-08
 -8.163868e-08
 -6.170912e-08
 -4.382316e-08
 -2.920015e-08
 -1.762147e-08
 -8.245064e-09
 0.000000e+00
 0.000000e+00
 -2.072360e-07
 1.701050e-05
 1.681723e-05
 -7.336819e-07
 -7.261502e-07
 -6.835631e-07
 -6.176042e-07
 -5.569372e-07
 -5.037300e-07
 -4.552812e-07
 -4.091002e-07
 -3.656588e-07
 -3.316783e-07
 -3.188909e-07
 -3.268400e-07
 -3.236937e-07
 -2.617672e-07
 -6.753993e-08
 6.051938e-07
 -2.802202e-07
 -1.582413e-06
 -5.025576e-07
 -3.207386e-07
 -2.463991e-07
 -2.019053e-07
 -1.686427e-07
 -1.420430e-07
 -1.212880e-07
 -1.065797e-07
 -9.774423e-08
 -9.169799e-08
 -7.806089e-08
 -3.979506e-08
 3.066187e-08
 1.294057e-07
 3.172819e-07
 9.046786e-07
 1.741055e-05
 -1.415217e-06
 -3.586135e-07
 -2.249903e-07
 -1.693951e-07
 -1.295077e-07
 -9.500101e-08
 -6.602314e-08
 -4.345827e-08
 -2.699450e-08
 -1.535512e-08
 -6.901437e-09
 0.000000e+00
 0.000000e+00
 8.505566e-07
 4.888998e-07
 -1.851742e-06
 -2.182695e-06
 -9.739982e-07
 -7.340254e-07
 -6.190229e-07
 -5.444830e-07
 -4.882062e-07
 -4.417617e-07
 -4.013906e-07
 -3.664055e-07
 -3.385878e-07
 -3.192954e-07
 -3.030960e-07
 -2.737335e-07
 -2.090214e-07
 -9.237006e-08
 -1.383710e-08
 -2.375451e-07
 -5.039274e-07
 -4.586681e-07
 -3.295553e-07
 -2.537942e-07
 -2.051477e-07
 -1.700088e-07
 -1.432716e-07
 -1.237858e-07
 -1.124449e-07
 -1.112521e-07
 -1.204935e-07
 -1.244705e-07
 -6.836614e-08
 8.784404e-08
 2.894223e-07
 5.543772e-07
 1.199286e-06
 -1.567508e-08
 -1.670078e-06
 -6.098512e-07
 -3.458038e-07
 -2.276931e-07
 -1.556624e-07
 -1.027957e-07
 -6.367647e-08
 -3.682581e-08
 -1.991317e-08
 -9.912723e-09
 -4.023451e-09
 0.000000e+00
 0.000000e+00
 1.566118e-07
 -8.580773e-08
 -6.826581e-07
 -9.889575e-07
 -8.687973e-07
 -6.937580e-07
 -5.865883e-07
 -5.153957e-07
 -4.634884e-07
 -4.226577e-07
 -3.887729e-07
 -3.600533e-07
 -3.357960e-07
 -3.144529e-07
 -2.914830e-07
 -2.594740e-07
 -2.134406e-07
 -1.644747e-07
 -1.578949e-07
 -2.340424e-07
 -3.210132e-07
 -3.298356e-07
 -2.856937e-07
 -2.367352e-07
 -1.961967e-07
 -1.635560e-07
 -1.375601e-07
 -1.183536e-07
 -1.081010e-07
 -1.126383e-07
 -1.453804e-07
 -2.302225e-07
 -2.239637e-07
 1.118396e-07
 4.370033e-07
 4.941428e-07
 4.159224e-07
 -6.787389e-09
 -4.507524e-07
 -4.807135e-07
 -3.518973e-07
 -2.496267e-07
 -1.655150e-07
 -9.717854e-08
 -4.879496e-08
 -2.013306e-08
 -5.979709e-09
 -4.660078e-10
 6.521847e-10
 0.000000e+00
 0.000000e+00
 -4.910169e-08
 -2.192532e-07
 -4.736019e-07
 -6.396799e-07
 -6.511548e-07
 -5.880723e-07
 -5.210513e-07
 -4.682727e-07
 -4.283052e-07
 -3.969912e-07
 -3.711943e-07
 -3.491168e-07
 -3.295296e-07
 -3.106068e-07
 -2.891203e-07
 -2.614525e-07
 -2.278025e-07
 -1.981665e-07
 -1.913445e-07
 -2.150207e-07
 -2.458430e-07
 -2.544372e-07
 -2.381369e-07
 -2.099223e-07
 -1.794362e-07
 -1.507093e-07
 -1.253647e-07
 -1.045139e-07
 -9.014712e-08
 -8.813206e-08
 -1.182179e-07
 -2.574640e-07
 -1.292258e-06
 6.417895e-08
 1.014410e-06
 3.944068e-07
 1.728978e-07
 -5.281953e-08
 -2.578889e-07
 -3.414999e-07
 -3.244962e-07
 -2.563402e-07
 -1.607889e-07
 -7.044516e-08
 -1.323969e-08
 1.107858e-08
 1.625580e-08
 1.309149e-08
 6.955691e-09
 0.000000e+00
 0.000000e+00
 -1.024840e-07
 -2.357244e-07
 -3.795913e-07
 -4.768180e-07
 -5.004224e-07
 -4.756753e-07
 -4.390801e-07
 -4.081442e-07
 -3.847108e-07
 -3.660549e-07
 -3.500029e-07
 -3.355849e-07
 -3.223156e-07
 -3.091599e-07
 -2.934906e-07
 -2.711881e-07
 -2.402966e-07
 -2.074882e-07
 -1.872594e-07
 -1.875185e-07
 -1.992532e-07
 -2.065669e-07
 -2.012543e-07
 -1.843705e-07
 -1.605856e-07
 -1.344075e-07
 -1.087856e-07
 -8.470115e-08
 -6.156592e-08
 -3.799777e-08
 -1.158942e-08
 2.676324e-08
 2.072798e-08
 1.749920e-05
 5.036353e-08
 6.586910e-08
 -4.431097e-09
 -1.075835e-07
 -2.196814e-07
 -3.036801e-07
 -3.405521e-07
 -2.947465e-07
 -1.502070e-07
 -4.197441e-09
 5.723225e-08
 6.043239e-08
 4.585219e-08
 2.911251e-08
 1.387315e-08
 0.000000e+00
 0.000000e+00
 -1.144756e-07
 -2.332198e-07
 -3.391155e-07
 -3.986345e-07
 -3.991753e-07
 -3.707679e-07
 -3.487534e-07
 -3.399923e-07
 -3.365501e-07
 -3.327414e-07
 -3.272638e-07
 -3.208171e-07
 -3.147007e-07
 -3.098704e-07
 -3.047141e-07
 -2.911525e-07
 -2.565556e-07
 -2.030237e-07
 -1.590755e-07
 -1.472709e-07
 -1.588894e-07
 -1.730636e-07
 -1.764347e-07
 -1.656260e-07
 -1.438503e-07
 -1.171959e-07
 -9.039305e-08
 -6.382808e-08
 -3.334385e-08
 9.915264e-09
 8.724196e-08
 2.727346e-07
 9.275293e-07
 2.349018e-08
 -1.300642e-06
 -2.568377e-07
 -1.366234e-07
 -1.516113e-07
 -2.158820e-07
 -3.075594e-07
 -4.381634e-07
 -4.612969e-07
 -1.378960e-07
 1.744575e-07
 1.838256e-07
 1.222706e-07
 7.607177e-08
 4.311333e-08
 1.924635e-08
 0.000000e+00
 0.000000e+00
 -1.178456e-07
 -2.395893e-07
 -3.488558e-07
 -3.889722e-07
 -3.274966e-07
 -2.527555e-07
 -2.429210e-07
 -2.674486e-07
 -2.895496e-07
 -3.013778e-07
 -3.055784e-07
 -3.056983e-07
 -3.054542e-07
 -3.097424e-07
 -3.228785e-07
 -3.346228e-07
 -2.980620e-07
 -1.876730e-07
 -9.168833e-08
 -8.186009e-08
 -1.178429e-07
 -1.521211e-07
 -1.668743e-07
 -1.583630e-07
 -1.317325e-07
 -9.930556e-08
 -7.098821e-08
 -4.625560e-08
 -1.644715e-08
 2.978101e-08
 1.051824e-07
 2.213212e-07
 2.889486e-07
 4.635784e-08
 -2.467011e-07
 -2.388584e-07
 -1.616347e-07
 -1.538369e-07
 -1.907749e-07
 -2.740323e-07
 -4.731482e-07
 -1.560583e-06
 -2.031402e-07
 8.290205e-07
 3.022542e-07
 1.663991e-07
 9.315712e-08
 4.791851e-08
 1.998752e-08
 0.000000e+00
 0.000000e+00
 -1.146472e-07
 -2.488444e-07
 -4.284847e-07
 -5.117700e-07
 -2.656414e-07
 -4.258081e-08
 -1.064754e-07
 -2.033465e-07
 -2.539549e-07
 -2.775861e-07
 -2.879658e-07
 -2.912011e-07
 -2.918326e-07
 -2.992998e-07
 -3.335894e-07
 -4.265736e-07
 -4.429307e-07
 -1.533622e-07
 8.964780e-08
 2.573306e-08
 -8.460841e-08
 -1.523408e-07
 -1.820021e-07
 -1.707721e-07
 -1.249526e-07
 -7.516962e-08
 -4.657048e-08
 -3.347175e-08
 -1.586401e-08
 2.117149e-08
 7.829795e-08
 1.332585e-07
 1.328586e-07
 3.722063e-08
 -7.775585e-08
 -1.209684e-07
 -1.175800e-07
 -1.156808e-07
 -1.278455e-07
 -1.542592e-07
 -1.957895e-07
 -3.322394e-07
 1.710615e-05
 -5.713702e-08
 2.292639e-07
 1.714561e-07
 8.226907e-08
 3.566847e-08
 1.307729e-08
 0.000000e+00
 0.000000e+00
 -9.350761e-08
 -2.125635e-07
 -4.355404e-07
 -1.548527e-06
 -2.636717e-07
 6.261695e-07
 -2.271551e-08
 -1.892182e-07
 -2.433555e-07
 -2.657035e-07
 -2.772304e-07
 -2.801515e-07
 -2.731659e-07
 -2.645764e-07
 -2.855335e-07
 -4.257041e-07
 -1.477609e-06
 -1.548512e-07
 7.500103e-07
 9.456915e-08
 -9.681179e-08
 -1.877063e-07
 -2.395355e-07
 -2.237601e-07
 -1.209890e-07
 -2.297075e-08
 -4.484925e-09
 -2.641974e-08
 -3.707534e-08
 -1.109478e-08
 4.728913e-08
 9.834558e-08
 1.004558e-07
 5.161369e-08
 -1.058781e-08
 -5.008346e-08
 -6.333420e-08
 -6.234839e-08
 -5.143006e-08
 -1.811274e-08
 9.329027e-08
 5.690312e-07
 -1.403671e-06
 -1.396483e-06
 5.900302e-07
 1.265931e-07
 2.558036e-08
 1.022422e-09
 -2.504780e-09
 0.000000e+00
 0.000000e+00
 -5.266063e-08
 -1.018228e-07
 -1.366161e-07
 -2.102712e-07
 1.721188e-05
 -2.709879e-07
 -2.498781e-07
 -2.597869e-07
 -2.572373e-07
 -2.619344e-07
 -2.744872e-07
 -2.806537e-07
 -2.597405e-07
 -2.069595e-07
 -1.465318e-07
 -9.622965e-08
 -1.139130e-07
 1.734024e-05
 -1.336061e-07
 -1.287757e-07
 -1.806737e-07
 -2.471752e-07
 -3.633896e-07
 -3.929886e-07
 -1.077175e-07
 1.367537e-07
 7.538505e-08
 -3.550718e-08
 -9.918850e-08
 -8.343132e-08
 2.304311e-08
 1.204165e-07
 1.270327e-07
 7.881777e-08
 2.651298e-08
 -7.975660e-09
 -2.138198e-08
 -1.648376e-08
 7.555048e-09
 6.082904e-08
 1.601047e-07
 2.305405e-07
 -4.151998e-08
 1.713673e-05
 -2.873639e-07
 -1.384862e-07
 -8.662876e-08
 -5.005457e-08
 -2.302709e-08
 0.000000e+00
 0.000000e+00
 -1.455618e-08
 -1.102755e-09
 1.189199e-07
 7.113960e-07
 -2.443139e-07
 -1.594533e-06
 -5.302624e-07
 -3.383018e-07
 -2.608632e-07
 -2.477616e-07
 -2.764809e-07
 -3.109291e-07
 -2.849636e-07
 -1.561831e-07
 1.260077e-08
 2.203157e-07
 8.559486e-07
 -7.408191e-08
 -1.417760e-06
 -3.792808e-07
 -2.483208e-07
 -2.567221e-07
 -4.048693e-07
 -1.461328e-06
 -1.362641e-07
 7.743279e-07
 1.207136e-07
 -8.713727e-08
 -2.398551e-07
 -2.756425e-07
 1.254575e-08
 2.619739e-07
 2.064576e-07
 1.041295e-07
 4.287446e-08
 1.208477e-08
 3.005098e-09
 1.186167e-08
 3.933849e-08
 9.068557e-08
 1.744518e-07
 3.240434e-07
 8.667682e-07
 -1.484686e-07
 -1.489828e-06
 -3.893757e-07
 -1.817392e-07
 -9.201662e-08
 -3.982754e-08
 0.000000e+00
 0.000000e+00
 1.348049e-09
 2.036059e-08
 7.426752e-08
 7.835311e-08
 -2.256926e-07
 -5.622252e-07
 -5.291432e-07
 -3.314905e-07
 -2.001650e-07
 -1.901902e-07
 -2.654676e-07
 -4.022581e-07
 -4.414607e-07
 -1.361466e-07
 1.859469e-07
 2.771598e-07
 2.828944e-07
 3.608630e-09
 -3.118271e-07
 -3.084127e-07
 -2.131003e-07
 -1.629447e-07
 -1.240391e-07
 -1.390280e-07
 1.732785e-05
 -1.292060e-07
 -1.102799e-07
 -1.669519e-07
 -3.222596e-07
 -1.374300e-06
 -4.094969e-08
 8.811974e-07
 2.478824e-07
 8.464755e-08
 2.997249e-08
 1.120046e-08
 1.017459e-08
 2.240471e-08
 4.782749e-08
 8.830078e-08
 1.465437e-07
 2.238568e-07
 2.332699e-07
 -5.839774e-08
 -3.615191e-07
 -3.228305e-07
 -1.871335e-07
 -1.027940e-07
 -4.588182e-08
 0.000000e+00
 0.000000e+00
 5.572893e-10
 2.616916e-09
 -6.228099e-09
 -7.318185e-08
 -2.484719e-07
 -4.842351e-07
 -5.537060e-07
 -2.550574e-07
 5.690422e-09
 -5.476540e-08
 -1.995119e-07
 -4.221323e-07
 -1.524247e-06
 -2.161741e-07
 7.518291e-07
 2.492074e-07
 1.693599e-07
 3.813949e-08
 -1.092094e-07
 -1.608934e-07
 -1.325578e-07
 -5.616487e-08
 1.269587e-07
 7.796334e-07
 -1.215084e-07
 -1.431645e-06
 -3.547342e-07
 -1.737622e-07