<VTKFile type="UnstructuredGrid"  version="0.1"   >
<UnstructuredGrid>  
<Piece  NumberOfPoints="     2601"  NumberOfCells="     5000">  
<Points>  
<DataArray  type="Float64"  NumberOfComponents="3"  format="ascii">  
 0.000000 0.000000 0.000000 
 0.020000 0.000000 0.000000 
 0.040000 0.000000 0.000000 
 0.060000 0.000000 0.000000 
 0.080000 0.000000 0.000000 
 0.100000 0.000000 0.000000 
 0.120000 0.000000 0.000000 
 0.140000 0.000000 0.000000 
 0.160000 0.000000 0.000000 
 0.180000 0.000000 0.000000 
 0.200000 0.000000 0.000000 
 0.220000 0.000000 0.000000 
 0.240000 0.000000 0.000000 
 0.260000 0.000000 0.000000 
 0.280000 0.000000 0.000000 
 0.300000 0.000000 0.000000 
 0.320000 0.000000 0.000000 
 0.340000 0.000000 0.000000 
 0.360000 0.000000 0.000000 
 0.380000 0.000000 0.000000 
 0.400000 0.000000 0.000000 
 0.420000 0.000000 0.000000 
 0.440000 0.000000 0.000000 
 0.460000 0.000000 0.000000 
 0.480000 0.000000 0.000000 
 0.500000 0.000000 0.000000 
 0.520000 0.000000 0.000000 
 0.540000 0.000000 0.000000 
 0.560000 0.000000 0.000000 
 0.580000 0.000000 0.000000 
 0.600000 0.000000 0.000000 
 0.620000 0.000000 0.000000 
 0.640000 0.000000 0.000000 
 0.660000 0.000000 0.000000 
 0.680000 0.000000 0.000000 
 0.700000 0.000000 0.000000 
 0.720000 0.000000 0.000000 
 0.740000 0.000000 0.000000 
 0.760000 0.000000 0.000000 
 0.780000 0.000000 0.000000 
 0.800000 0.000000 0.000000 
 0.820000 0.000000 0.000000 
 0.840000 0.000000 0.000000 
 0.860000 0.000000 0.000000 
 0.880000 0.000000 0.000000 
 0.900000 0.000000 0.000000 
 0.920000 0.000000 0.000000 
 0.940000 0.000000 0.000000 
 0.960000 0.000000 0.000000 
 0.980000 0.000000 0.000000 
 1.000000 0.000000 0.000000 
 0.000000 0.020000 0.000000 
 0.020000 0.020000 0.000000 
 0.040000 0.020000 0.000000 
 0.060000 0.020000 0.000000 
 0.080000 0.020000 0.000000 
 0.100000 0.020000 0.000000 
 0.120000 0.020000 0.000000 
 0.140000 0.020000 0.000000 
 0.160000 0.020000 0.000000 
 0.180000 0.020000 0.000000 
 0.200000 0.020000 0.000000 
 0.220000 0.020000 0.000000 
 0.240000 0.020000 0.000000 
 0.260000 0.020000 0.000000 
 0.280000 0.020000 0.000000 
 0.300000 0.020000 0.000000 
 0.320000 0.020000 0.000000 
 0.340000 0.020000 0.000000 
 0.360000 0.020000 0.000000 
 0.380000 0.020000 0.000000 
 0.400000 0.020000 0.000000 
 0.420000 0.020000 0.000000 
 0.440000 0.020000 0.000000 
 0.460000 0.020000 0.000000 
 0.480000 0.020000 0.000000 
 0.500000 0.020000 0.000000 
 0.520000 0.020000 0.000000 
 0.540000 0.020000 0.000000 
 0.560000 0.020000 0.000000 
 0.580000 0.020000 0.000000 
 0.600000 0.020000 0.000000 
 0.620000 0.020000 0.000000 
 0.640000 0.020000 0.000000 
 0.660000 0.020000 0.000000 
 0.680000 0.020000 0.000000 
 0.700000 0.020000 0.000000 
 0.720000 0.020000 0.000000 
 0.740000 0.020000 0.000000 
 0.760000 0.020000 0.000000 
 0.780000 0.020000 0.000000 
 0.800000 0.020000 0.000000 
 0.820000 0.020000 0.000000 
 0.840000 0.020000 0.000000 
 0.860000 0.020000 0.000000 
 0.880000 0.020000 0.000000 
 0.900000 0.020000 0.000000 
 0.920000 0.020000 0.000000 
 0.940000 0.020000 0.000000 
 0.960000 0.020000 0.000000 
 0.980000 0.020000 0.000000 
 1.000000 0.020000 0.000000 
 0.000000 0.040000 0.000000 
 0.020000 0.040000 0.000000 
 0.040000 0.040000 0.000000 
 0.060000 0.040000 0.000000 
 0.080000 0.040000 0.000000 
 0.100000 0.040000 0.000000 
 0.120000 0.040000 0.000000 
 0.140000 0.040000 0.000000 
 0.160000 0.040000 0.000000 
 0.180000 0.040000 0.000000 
 0.200000 0.040000 0.000000 
 0.220000 0.040000 0.000000 
 0.240000 0.040000 0.000000 
 0.260000 0.040000 0.000000 
 0.280000 0.040000 0.000000 
 0.300000 0.040000 0.000000 
 0.320000 0.040000 0.000000 
 0.340000 0.040000 0.000000 
 0.360000 0.040000 0.000000 
 0.380000 0.040000 0.000000 
 0.400000 0.040000 0.000000 
 0.420000 0.040000 0.000000 
 0.440000 0.040000 0.000000 
 0.460000 0.040000 0.000000 
 0.480000 0.040000 0.000000 
 0.500000 0.040000 0.000000 
 0.520000 0.040000 0.000000 
 0.540000 0.040000 0.000000 
 0.560000 0.040000 0.000000 
 0.580000 0.040000 0.000000 
 0.600000 0.040000 0.000000 
 0.620000 0.040000 0.000000 
 0.640000 0.040000 0.000000 
 0.660000 0.040000 0.000000 
 0.680000 0.040000 0.000000 
 0.700000 0.040000 0.000000 
 0.720000 0.040000 0.000000 
 0.740000 0.040000 0.000000 
 0.760000 0.040000 0.000000 
 0.780000 0.040000 0.000000 
 0.800000 0.040000 0.000000 
 0.820000 0.040000 0.000000 
 0.840000 0.040000 0.000000 
 0.860000 0.040000 0.000000 
 0.880000 0.040000 0.000000 
 0.900000 0.040000 0.000000 
 0.920000 0.040000 0.000000 
 0.940000 0.040000 0.000000 
 0.960000 0.040000 0.000000 
 0.980000 0.040000 0.000000 
 1.000000 0.040000 0.000000 
 0.000000 0.060000 0.000000 
 0.020000 0.060000 0.000000 
 0.040000 0.060000 0.000000 
 0.060000 0.060000 0.000000 
 0.080000 0.060000 0.000000 
 0.100000 0.060000 0.000000 
 0.120000 0.060000 0.000000 
 0.140000 0.060000 0.000000 
 0.160000 0.060000 0.000000 
 0.180000 0.060000 0.000000 
 0.200000 0.060000 0.000000 
 0.220000 0.060000 0.000000 
 0.240000 0.060000 0.000000 
 0.260000 0.060000 0.000000 
 0.280000 0.060000 0.000000 
 0.300000 0.060000 0.000000 
 0.320000 0.060000 0.000000 
 0.340000 0.060000 0.000000 
 0.360000 0.060000 0.000000 
 0.380000 0.060000 0.000000 
 0.400000 0.060000 0.000000 
 0.420000 0.060000 0.000000 
 0.440000 0.060000 0.000000 
 0.460000 0.060000 0.000000 
 0.480000 0.060000 0.000000 
 0.500000 0.060000 0.000000 
 0.520000 0.060000 0.000000 
 0.540000 0.060000 0.000000 
 0.560000 0.060000 0.000000 
 0.580000 0.060000 0.000000 
 0.600000 0.060000 0.000000 
 0.620000 0.060000 0.000000 
 0.640000 0.060000 0.000000 
 0.660000 0.060000 0.000000 
 0.680000 0.060000 0.000000 
 0.700000 0.060000 0.000000 
 0.720000 0.060000 0.000000 
 0.740000 0.060000 0.000000 
 0.760000 0.060000 0.000000 
 0.780000 0.060000 0.000000 
 0.800000 0.060000 0.000000 
 0.820000 0.060000 0.000000 
 0.840000 0.060000 0.000000 
 0.860000 0.060000 0.000000 
 0.880000 0.060000 0.000000 
 0.900000 0.060000 0.000000 
 0.920000 0.060000 0.000000 
 0.940000 0.060000 0.000000 
 0.960000 0.060000 0.000000 
 0.980000 0.060000 0.000000 
 1.000000 0.060000 0.000000 
 0.000000 0.080000 0.000000 
 0.020000 0.080000 0.000000 
 0.040000 0.080000 0.000000 
 0.060000 0.080000 0.000000 
 0.080000 0.080000 0.000000 
 0.100000 0.080000 0.000000 
 0.120000 0.080000 0.000000 
 0.140000 0.080000 0.000000 
 0.160000 0.080000 0.000000 
 0.180000 0.080000 0.000000 
 0.200000 0.080000 0.000000 
 0.220000 0.080000 0.000000 
 0.240000 0.080000 0.000000 
 0.260000 0.080000 0.000000 
 0.280000 0.080000 0.000000 
 0.300000 0.080000 0.000000 
 0.320000 0.080000 0.000000 
 0.340000 0.080000 0.000000 
 0.360000 0.080000 0.000000 
 0.380000 0.080000 0.000000 
 0.400000 0.080000 0.000000 
 0.420000 0.080000 0.000000 
 0.440000 0.080000 0.000000 
 0.460000 0.080000 0.000000 
 0.480000 0.080000 0.000000 
 0.500000 0.080000 0.000000 
 0.520000 0.080000 0.000000 
 0.540000 0.080000 0.000000 
 0.560000 0.080000 0.000000 
 0.580000 0.080000 0.000000 
 0.600000 0.080000 0.000000 
 0.620000 0.080000 0.000000 
 0.640000 0.080000 0.000000 
 0.660000 0.080000 0.000000 
 0.680000 0.080000 0.000000 
 0.700000 0.080000 0.000000 
 0.720000 0.080000 0.000000 
 0.740000 0.080000 0.000000 
 0.760000 0.080000 0.000000 
 0.780000 0.080000 0.000000 
 0.800000 0.080000 0.000000 
 0.820000 0.080000 0.000000 
 0.840000 0.080000 0.000000 
 0.860000 0.080000 0.000000 
 0.880000 0.080000 0.000000 
 0.900000 0.080000 0.000000 
 0.920000 0.080000 0.000000 
 0.940000 0.080000 0.000000 
 0.960000 0.080000 0.000000 
 0.980000 0.080000 0.000000 
 1.000000 0.080000 0.000000 
 0.000000 0.100000 0.000000 
 0.020000 0.100000 0.000000 
 0.040000 0.100000 0.000000 
 0.060000 0.100000 0.000000 
 0.080000 0.100000 0.000000 
 0.100000 0.100000 0.000000 
 0.120000 0.100000 0.000000 
 0.140000 0.100000 0.000000 
 0.160000 0.100000 0.000000 
 0.180000 0.100000 0.000000 
 0.200000 0.100000 0.000000 
 0.220000 0.100000 0.000000 
 0.240000 0.100000 0.000000 
 0.260000 0.100000 0.000000 
 0.280000 0.100000 0.000000 
 0.300000 0.100000 0.000000 
 0.320000 0.100000 0.000000 
 0.340000 0.100000 0.000000 
 0.360000 0.100000 0.000000 
 0.380000 0.100000 0.000000 
 0.400000 0.100000 0.000000 
 0.420000 0.100000 0.000000 
 0.440000 0.100000 0.000000 
 0.460000 0.100000 0.000000 
 0.480000 0.100000 0.000000 
 0.500000 0.100000 0.000000 
 0.520000 0.100000 0.000000 
 0.540000 0.100000 0.000000 
 0.560000 0.100000 0.000000 
 0.580000 0.100000 0.000000 
 0.600000 0.100000 0.000000 
 0.620000 0.100000 0.000000 
 0.640000 0.100000 0.000000 
 0.660000 0.100000 0.000000 
 0.680000 0.100000 0.000000 
 0.700000 0.100000 0.000000 
 0.720000 0.100000 0.000000 
 0.740000 0.100000 0.000000 
 0.760000 0.100000 0.000000 
 0.780000 0.100000 0.000000 
 0.800000 0.100000 0.000000 
 0.820000 0.100000 0.000000 
 0.840000 0.100000 0.000000 
 0.860000 0.100000 0.000000 
 0.880000 0.100000 0.000000 
 0.900000 0.100000 0.000000 
 0.920000 0.100000 0.000000 
 0.940000 0.100000 0.000000 
 0.960000 0.100000 0.000000 
 0.980000 0.100000 0.000000 
 1.000000 0.100000 0.000000 
 0.000000 0.120000 0.000000 
 0.020000 0.120000 0.000000 
 0.040000 0.120000 0.000000 
 0.060000 0.120000 0.000000 
 0.080000 0.120000 0.000000 
 0.100000 0.120000 0.000000 
 0.120000 0.120000 0.000000 
 0.140000 0.120000 0.000000 
 0.160000 0.120000 0.000000 
 0.180000 0.120000 0.000000 
 0.200000 0.120000 0.000000 
 0.220000 0.120000 0.000000 
 0.240000 0.120000 0.000000 
 0.260000 0.120000 0.000000 
 0.280000 0.120000 0.000000 
 0.300000 0.120000 0.000000 
 0.320000 0.120000 0.000000 
 0.340000 0.120000 0.000000 
 0.360000 0.120000 0.000000 
 0.380000 0.120000 0.000000 
 0.400000 0.120000 0.000000 
 0.420000 0.120000 0.000000 
 0.440000 0.120000 0.000000 
 0.460000 0.120000 0.000000 
 0.480000 0.120000 0.000000 
 0.500000 0.120000 0.000000 
 0.520000 0.120000 0.000000 
 0.540000 0.120000 0.000000 
 0.560000 0.120000 0.000000 
 0.580000 0.120000 0.000000 
 0.600000 0.120000 0.000000 
[...]
<PointData  Scalars="U"> 
<DataArray  type="Float64"  Name="U"  format="ascii"> 
 0.000000e+00
 0.000000e+00
 0.000000e+00
 0.000000e+00
 0.000000e+00
 0.000000e+00
 0.000000e+00
 0.000000e+00
 0.000000e+00
 0.000000e+00
 0.000000e+00
 0.000000e+00
 0.000000e+00
 0.000000e+00
 0.000000e+00
 0.000000e+00
 0.000000e+00
 0.000000e+00
 0.000000e+00
 0.000000e+00
 0.000000e+00
 0.000000e+00
 0.000000e+00
 0.000000e+00
 0.000000e+00
 0.000000e+00
 0.000000e+00
 0.000000e+00
 0.000000e+00
 0.000000e+00
 0.000000e+00
 0.000000e+00
 0.000000e+00
 0.000000e+00
 0.000000e+00
 0.000000e+00
 0.000000e+00
 0.000000e+00
 0.000000e+00
 0.000000e+00
 0.000000e+00
 0.000000e+00
 0.000000e+00
 0.000000e+00
 0.000000e+00
 0.000000e+00
 0.000000e+00
 0.000000e+00
 0.000000e+00
 0.000000e+00
 0.000000e+00
 0.000000e+00
 1.169076e-09
 3.658348e-09
 1.018525e-08
 2.770373e-08
 7.387936e-08
 1.878604e-07
 1.814243e-07
 1.735998e-05
 -3.415208e-07
 -3.538069e-07
 -1.329159e-06
 -5.275560e-08
 7.950020e-07
 1.964830e-07
 -6.971045e-08
 1.679382e-05
 -1.736977e-06
 -3.711990e-06
 -3.856379e-06
 -1.388342e-06
 -8.279393e-07
 -5.159995e-07
 -1.391855e-06
 -2.341647e-07
 7.586570e-07
 2.531490e-07
 -1.074416e-07
 -1.314252e-06
 -1.168477e-07
 7.320051e-07
 1.162743e-07
 -1.388593e-08
 -1.402602e-07
 -1.176217e-06
 1.020068e-07
 9.819329e-07
 4.370808e-07
 2.777757e-07
 1.740788e-05
 -3.100285e-07
 -2.290154e-07
 -1.439079e-07
 -8.570107e-08
 -5.010879e-08
 -2.835508e-08
 -1.537222e-08
 -7.962164e-09
 -3.855022e-09
 -1.432989e-09
 0.000000e+00
 0.000000e+00
 1.215004e-09
 3.888116e-09
 1.098221e-08
 3.043967e-08
 8.507525e-08
 2.445900e-07
 8.392245e-07
 -1.643529e-07
 -1.508543e-06
 -3.232417e-07
 -9.190959e-08
 1.740062e-05
 -9.573153e-08
 -2.589867e-08
 3.944866e-07
 -9.074633e-07
 -2.828178e-06
 -2.346681e-06
 -2.151463e-06
 -1.607064e-06
 -2.116509e-06
 -5.349884e-07
 3.156493e-07
 1.610262e-05
 -2.099695e-07
 6.677923e-07
 -3.080561e-09
 -2.265571e-07
 1.718810e-05
 -2.004597e-07
 -7.719361e-08
 -3.775679e-08
 4.644577e-08
 1.405141e-07
 1.768684e-05
 2.627284e-07
 4.112197e-07
 9.618415e-07
 -8.291142e-08
 -1.510266e-06
 -4.587177e-07
 -2.527595e-07
 -1.495356e-07
 -8.705299e-08
 -4.820376e-08
 -2.530943e-08
 -1.273387e-08
 -6.089406e-09
 -2.428327e-09
 0.000000e+00
 0.000000e+00
 7.665006e-12
 3.823033e-10
 1.448880e-09
 4.052146e-09
 1.202656e-08
 3.814630e-08
 2.324442e-08
 -2.744517e-07
 -4.817037e-07
 7.370082e-09
 9.751057e-07
 1.023284e-09
 -1.471009e-06
 -5.209147e-07
 -5.028828e-07
 -8.891668e-07
 -1.390203e-06
 -1.564263e-06
 -1.426491e-06
 -1.084864e-06
 -7.324345e-07
 1.713540e-05
 4.782978e-07
 -3.552186e-07
 1.580880e-05
 -5.479500e-07
 -2.394274e-07
 3.366431e-07
 -5.637169e-07
 -1.562157e-06
 -2.345737e-07
 -1.071045e-07
 1.103771e-07
 1.101293e-06
 4.380420e-07
 -9.433613e-07
 6.424378e-08
 1.711348e-07
 -1.145822e-07
 -4.432683e-07
 -4.232270e-07
 -2.827459e-07
 -1.776174e-07
 -1.014252e-07
 -5.229301e-08
 -2.512707e-08
 -1.183059e-08
 -5.556801e-09
 -2.266286e-09
 0.000000e+00
 0.000000e+00
 -1.587885e-09
 -3.772503e-09
 -9.251892e-09
 -2.623674e-08
 -7.647611e-08
 -2.114521e-07
 -3.585334e-07
 -3.814395e-07
 -1.277508e-06
 1.141574e-07
 1.054758e-06
 9.227727e-08
 -5.013029e-07
 -7.528107e-07
 -8.720089e-07
 -8.210676e-07
 -8.245023e-07
 -9.710681e-07
 -9.433503e-07
 -6.292433e-07
 2.616479e-07
 -3.267627e-07
 -1.289238e-06
 2.653813e-07
 -7.078617e-07
 -1.909220e-06
 -6.831856e-07
 -5.636037e-07
 -1.729081e-06
 -5.510547e-07
 4.076018e-07
 -2.134579e-07
 -1.017300e-06
 5.582388e-07
 1.154514e-06
 1.355499e-07
 -5.539012e-08
 -7.632279e-08
 -1.909440e-07
 -3.162739e-07
 -3.420645e-07
 -2.780540e-07
 -1.779689e-07
 -8.777973e-08
 -3.382275e-08
 -1.140300e-08
 -4.436892e-09
 -2.391427e-09
 -1.226095e-09
 0.000000e+00
 0.000000e+00
 -2.910078e-09
 -5.440347e-09
 -1.040525e-08
 -2.816947e-08
 -8.842377e-08
 -2.872071e-07
 -1.439607e-06
 -2.768071e-07
 5.184784e-07
 1.758242e-05
 1.364422e-07
 -1.009222e-07
 -4.425504e-07
 -7.755398e-07
 -1.960707e-06
 -7.713514e-07
 2.722385e-08
 -6.448068e-07
 -7.242003e-07
 -5.690625e-07
 -3.592256e-07
 -3.911844e-07
 -4.550614e-07
 -3.545072e-07
 -5.304367e-07
 -7.709736e-07
 -7.167725e-07
 -6.320051e-07
 -5.883082e-07
 1.717596e-05
 -1.371215e-07
 -1.143166e-06
 9.869827e-08
 1.842089e-05
 2.133914e-07
 -3.610804e-08
 -1.499623e-07
 -1.935020e-07
 -2.513496e-07
 -3.191305e-07
 -3.546897e-07
 -3.071673e-07
 -1.657598e-07
 -3.119616e-08
 1.772772e-08
 1.628549e-08
 6.740803e-09
 1.197399e-09
 -3.829109e-10
 0.000000e+00
 0.000000e+00
 -5.130948e-09
 -5.792329e-09
 -1.315577e-09
 4.405715e-09
 6.294397e-09
 7.040931e-09
 -5.232749e-08
 1.735988e-05
 -5.770273e-07
 -1.940080e-07
 -6.854357e-07
 -3.535285e-07
 -4.503594e-07
 -5.244481e-07
 -6.317280e-07
 1.675337e-05
 -7.607417e-07
 -7.444837e-07
 -7.174281e-07
 -6.406213e-07
 -5.689578e-07
 -5.176575e-07
 -4.256441e-07
 -3.465621e-07
 -4.006858e-07
 -5.155528e-07
 -6.064790e-07
 -5.765018e-07
 -6.739435e-07
 2.794355e-08
 -3.245562e-07
 1.974481e-07
 1.828867e-05
 -9.800926e-08
 -1.430630e-06
 -4.292937e-07
 -3.027286e-07
 -2.782643e-07
 -2.973820e-07
 -3.522965e-07
 -4.537809e-07
 -4.585975e-07
 -1.411276e-07
 1.390749e-07
 1.159439e-07
 4.582051e-08
 1.248138e-08
 6.804625e-10
 -1.458118e-09
 0.000000e+00
 0.000000e+00
 -1.254967e-08
 -1.217031e-08
 6.247155e-09
 4.164742e-08
 1.068691e-07
 2.800493e-07
 9.414105e-07
 9.584318e-08
 -1.248040e-06
 1.697942e-05
 -6.512020e-07
 -5.871112e-07
 -4.846128e-07
 -3.230560e-07
 2.883078e-07
 -6.573805e-07
 -2.002578e-06
 -9.420986e-07
 -7.631518e-07
 -7.027647e-07
 -7.329960e-07
 -7.141427e-07
 -4.061504e-07
 -1.513219e-07
 -2.109582e-07
 -3.228741e-07
 -4.488391e-07
 -1.373062e-06
 3.250795e-08
 1.826767e-05
 1.379363e-07
 8.035860e-07
 1.795898e-08
 -1.505536e-06
 -7.171768e-07
 -5.341667e-07
 -3.842587e-07
 -3.236788e-07
 -3.105504e-07
 -3.414855e-07
 -4.822237e-07
 -1.516605e-06
 -1.612224e-07
 7.851028e-07
 1.758607e-07
 3.474976e-08
 -1.760835e-09
 -8.528792e-09
 -5.755292e-09
 0.000000e+00
 0.000000e+00
 -3.445446e-08
 -3.817813e-08
 -1.413417e-09
 5.751541e-08
 1.292336e-07
 2.395208e-07
 3.384205e-07
 2.404906e-07
 5.328276e-07
 -4.914108e-07
 -1.843380e-06
 -7.723851e-07
 -5.494668e-07
 -4.019216e-07
 -3.388677e-07
 -5.900495e-07
 -8.791489e-07
 -8.462558e-07
 -7.254422e-07
 -6.807413e-07
 -7.734244e-07
 -1.783742e-06
 -4.193102e-07
 5.332970e-07
 -5.930363e-08
 -1.536041e-07
 -7.519651e-08
 1.126548e-07
 1.824843e-05
 -1.236490e-07
 -1.362132e-06
 -2.146239e-07
 -2.518102e-07
 -5.319618e-07
 -5.668581e-07
 -4.688416e-07
 -3.848339e-07
 -3.271435e-07
 -2.877631e-07
 -2.520666e-07
 -2.022359e-07
 -1.917522e-07
 1.730690e-05
 -1.169279e-07
 -6.013573e-08
 -5.339677e-08
 -3.938870e-08
 -2.557549e-08
 -1.256579e-08
 0.000000e+00
 0.000000e+00
 -9.069409e-08
 -1.112314e-07
 -2.948762e-08
 6.909868e-08
 1.124145e-07
 1.285964e-07
 1.245231e-07
 8.014079e-08
 -3.034253e-08
 -3.816374e-07
 -7.142050e-07
 -6.947984e-07
 -5.653221e-07
 -4.874032e-07
 -4.816298e-07
 -5.683423e-07
 -6.634653e-07
 -6.724284e-07
 -6.194484e-07
 -5.531626e-07
 -4.800552e-07
 -4.549450e-07
 1.705831e-05
 -3.393358e-07
 -2.315132e-07
 -1.214267e-07
 1.344329e-07
 9.015211e-07
 6.155971e-08
 -1.493178e-06
 -6.814768e-07
 -4.601389e-07
 -3.515812e-07
 -3.866177e-07
 -4.118179e-07
 -3.916493e-07
 -3.535467e-07
 -3.120203e-07
 -2.613301e-07
 -1.737156e-07
 3.357357e-08
 7.236295e-07
 -1.385979e-07
 -1.420101e-06
 -3.283345e-07
 -1.446055e-07
 -7.617995e-08
 -4.173722e-08
 -1.893168e-08
 0.000000e+00
 0.000000e+00
 -2.191137e-07
 -3.165055e-07
 -7.018474e-08
 1.623394e-07
 1.132115e-07
 2.835421e-08
 -2.818746e-08
 -9.378385e-08
 -2.037943e-07
 -3.722933e-07
 -5.187271e-07
 -5.605036e-07
 -5.347314e-07
 -5.060322e-07
 -5.053759e-07
 -5.346357e-07
 -5.643323e-07
 -5.613571e-07
 -5.175388e-07
 -4.263255e-07
 -2.205645e-07
 4.647580e-07
 -3.893684e-07
 -1.636190e-06
 -4.810345e-07
 -2.026990e-07
 5.352606e-10
 1.105740e-07
 -1.535643e-07
 -5.478836e-07
 -5.971583e-07
 -4.262826e-07
 -2.958187e-07
 -2.812143e-07
 -3.115662e-07
 -3.275750e-07
 -3.226037e-07
 -3.029443e-07
 -2.653469e-07
 -1.890642e-07
 -4.341673e-08
 8.730939e-08
 -8.412363e-08
 -3.224788e-07
 -2.726362e-07
 -1.506406e-07
 -8.574259e-08
 -4.808994e-08
 -2.193903e-08
 0.000000e+00
 0.000000e+00
 -2.982893e-07
 -1.449087e-06
 -1.798401e-07
 7.081668e-07
 6.253136e-08
 -1.041899e-07
 -1.701070e-07
 -2.242424e-07
 -2.954170e-07
 -3.828013e-07
 -4.580607e-07
 -4.950547e-07
 -4.992384e-07
 -4.929856e-07
 -4.924701e-07
 -4.997157e-07
 -5.040833e-07
 -4.919943e-07
 -4.549688e-07
 -3.847918e-07
 -2.678078e-07
 -1.806683e-07
 -3.664391e-07
 -5.608599e-07
 -4.350935e-07
 -2.437528e-07
 -1.390920e-07
 -1.385000e-07
 -2.853892e-07
 -5.299061e-07
 -6.238056e-07
 -3.421484e-07
 -8.773069e-08
 -1.402333e-07
 -2.362124e-07
 -2.855455e-07
 -3.044641e-07
 -3.087387e-07
 -3.047060e-07
 -2.802851e-07
 -1.977646e-07
 -7.417978e-08
 -3.866077e-08
 -9.544225e-08
 -1.214387e-07
 -1.010036e-07
 -7.090817e-08
 -4.423052e-08
 -2.118160e-08
 0.000000e+00
 0.000000e+00
 -1.036822e-07
 -2.284167e-07
 1.717012e-05
 -3.169456e-07
 -2.954839e-07
 -3.099386e-07
 -3.166982e-07
 -3.335007e-07
 -3.649335e-07
 -4.056757e-07
 -4.427842e-07
 -4.652729e-07
 -4.725487e-07
 -4.716773e-07
 -4.693844e-07
 -4.672099e-07
 -4.616259e-07
 -4.477912e-07
 -4.235882e-07
 -3.922489e-07
 -3.687402e-07
 -3.832810e-07
 -4.236128e-07
 -3.893654e-07
 -2.814982e-07
 -2.050348e-07
 -1.853803e-07
 -2.162887e-07
 -3.108071e-07
 -5.230757e-07
 -1.615977e-06
 -3.047787e-07
 6.030415e-07
 -4.170268e-08
 -2.128823e-07
 -2.728472e-07
 -2.994638e-07
 -3.205081e-07
 -3.568702e-07
 -4.366394e-07
 -4.273718e-07
 -1.158847e-07
 1.313193e-07
 6.754420e-08
 -2.326819e-08
 -5.379766e-08
 -5.128476e-08
 -3.658915e-08
 -1.856866e-08
 0.000000e+00
 0.000000e+00
 2.598367e-08
 5.449987e-07
 -4.322537e-07
 -1.771861e-06
 -6.997822e-07
 -5.185881e-07
 -4.515736e-07
 -4.264635e-07
 -4.235657e-07
 -4.325275e-07
 -4.442839e-07
 -4.521270e-07
 -4.538176e-07
 -4.507811e-07
 -4.452213e-07
 -4.378917e-07
 -4.279523e-07
 -4.147698e-07
 -4.009066e-07
 -3.965456e-07
 -4.266324e-07
 -5.329181e-07
 -5.809832e-07
 -3.175343e-07
 -7.077160e-08
 -1.067556e-07
 -1.861922e-07
 -2.321666e-07
 -2.476856e-07
 -2.258124e-07
 -2.412913e-07
 1.721681e-05
 -2.563017e-07
 -2.448718e-07
 -2.740253e-07
 -2.878444e-07
 -2.992981e-07
 -3.186776e-07
 -3.666921e-07
 -5.155212e-07
 -1.543431e-06
 -1.692358e-07
 7.867021e-07
 1.664402e-07
 8.084918e-09
 -3.692916e-08
 -4.174838e-08
 -3.135845e-08
 -1.617529e-08
 0.000000e+00
 0.000000e+00
 -1.801471e-07
 -2.965875e-07
 -5.945533e-07
 -8.646070e-07
 -7.962792e-07
 -6.419720e-07
 -5.502339e-07
 -4.981264e-07
 -4.703384e-07
 -4.569602e-07
 -4.505512e-07
 -4.458104e-07
 -4.399158e-07
 -4.321009e-07
 -4.225048e-07
 -4.111897e-07
 -3.980259e-07
 -3.836019e-07
 -3.711474e-07
 -3.702867e-07
 -4.071371e-07
 -5.654664e-07
 -1.633420e-06
 -3.182769e-07
 5.920994e-07
 -4.800003e-08
 -2.203382e-07
 -2.759576e-07
 -2.223093e-07
 2.599242e-08
 7.437526e-07
 -1.657083e-07
 -1.522382e-06
 -4.908848e-07
 -3.468886e-07
 -3.051233e-07
 -2.924778e-07
 -2.936299e-07
 -3.042264e-07
 -3.018831e-07
 -2.940382e-07
 1.727711e-05
 -7.928988e-08
 -2.499905e-08
 -4.928518e-08
 -5.487997e-08
 -4.538074e-08
 -2.988841e-08
 -1.432995e-08
 0.000000e+00
 0.000000e+00
 -5.679238e-07
 -7.938293e-07
 -8.634328e-07
 -8.761831e-07
 -8.078315e-07
 -7.021819e-07
 -6.111208e-07
 -5.462731e-07
 -5.030324e-07
 -4.747653e-07
 -4.555930e-07
 -4.410146e-07
 -4.280789e-07
 -4.151617e-07
 -4.014458e-07
 -3.864313e-07
 -3.697606e-07
 -3.514067e-07
 -3.320188e-07
 -3.129700e-07
 -2.949757e-07
 -2.708640e-07
 -2.960470e-07
 1.716268e-05
 -2.996882e-07
 -2.827840e-07
 -3.322350e-07
 -4.155193e-07
 -3.917051e-07
 -1.526491e-08
 2.790663e-07
 -2.624636e-08
 -4.100256e-07
 -4.349794e-07
 -3.475236e-07
 -2.998476e-07
 -2.733842e-07
 -2.574453e-07
 -2.419143e-07
 -1.764065e-07
 4.418114e-07
 -1.807085e-07
 -1.249723e-06
 -2.253350e-07
 -1.284994e-07
 -8.870590e-08
 -5.423262e-08
 -2.762370e-08
 -1.084053e-08
 0.000000e+00
 0.000000e+00
 -1.442613e-06
 -1.395532e-06
 -1.165367e-06
 -9.921986e-07
 -8.551834e-07
 -7.385408e-07
 -6.440815e-07
 -5.726945e-07
 -5.209116e-07
 -4.837128e-07
 -4.563110e-07
 -4.348071e-07
 -4.163571e-07
 -3.990638e-07
 -3.816980e-07
 -3.633787e-07
 -3.432974e-07
 -3.203968e-07
 -2.925509e-07
 -2.537916e-07
 -1.842737e-07
 -8.989381e-09
 6.361309e-07
 -2.729667e-07
 -1.593370e-06
 -5.356740e-07
 -4.050161e-07
 -4.904379e-07
 -1.501381e-06
 -1.424688e-07
 7.577663e-07
 2.348105e-08
 -2.446513e-07
 -3.210309e-07
 -3.078066e-07
 -2.753443e-07
 -2.442779e-07
 -2.173927e-07
 -2.026389e-07
 -2.625128e-07
 -1.269230e-06
 -1.949561e-07
 4.314054e-07
 -1.692380e-07
 -1.863592e-07
 -1.221294e-07
 -5.412746e-08
 -1.440341e-08
 -1.176040e-09
 0.000000e+00
 0.000000e+00
 -3.511359e-06
 -1.992500e-06
 -1.390691e-06
 -1.077412e-06
 -8.854328e-07
 -7.518761e-07
 -6.531402e-07
 -5.793142e-07
 -5.242746e-07
 -4.830227e-07
 -4.513143e-07
 -4.257084e-07
 -4.035910e-07
 -3.830947e-07
 -3.629154e-07
 -3.420570e-07
 -3.195173e-07
 -2.938393e-07
 -2.622626e-07
 -2.189215e-07
 -1.517116e-07
 -4.484485e-08
 1.835319e-08
 -2.190826e-07
 -4.940378e-07
 -4.520719e-07
 -3.212190e-07
 -2.316824e-07
 -2.158722e-07
 1.726346e-05
 -2.058427e-07
 -2.168969e-07
 -2.734641e-07
 -2.907454e-07
 -2.768743e-07
 -2.474662e-07
 -2.115104e-07
 -1.702724e-07
 -1.225073e-07
 -7.134520e-08
 -1.158278e-07
 1.723646e-05
 -3.470889e-07
 -3.582847e-07
 -3.051553e-07
 -1.547700e-07
 -1.884996e-08
 2.701177e-08
 1.951672e-08
 0.000000e+00
 0.000000e+00
 -3.701019e-06
 -1.953777e-06
 -1.368897e-06
 -1.055616e-06
 -8.630392e-07
 -7.322572e-07
 -6.377340e-07
 -5.672876e-07
 -5.139696e-07
 -4.729247e-07
 -4.403562e-07
 -4.132486e-07
 -3.892995e-07
 -3.668610e-07
 -3.448139e-07
 -3.223504e-07
 -2.986834e-07
 -2.727116e-07
 -2.427006e-07
 -2.063041e-07
 -1.626244e-07
 -1.224886e-07
 -1.267846e-07
 -2.101672e-07
 -2.956881e-07
 -2.877645e-07
 -1.925830e-07
 1.491040e-08
 6.824728e-07
 -2.175818e-07
 -1.542656e-06
 -4.936321e-07
 -3.438982e-07
 -2.933339e-07
 -2.597383e-07
 -2.247517e-07
 -1.835786e-07
 -1.303397e-07
 -4.795292e-08
 1.289366e-07
 7.472302e-07
 -2.271498e-07
 -1.640113e-06
 -6.949735e-07
 -5.381375e-07
 -1.665595e-07
 1.339999e-07
 1.176365e-07
 4.593958e-08
 0.000000e+00
 0.000000e+00
 -1.168402e-06
 -1.327069e-06
 -1.113821e-06
 -9.253315e-07
 -7.836525e-07
 -6.783312e-07
 -5.989972e-07
 -5.384296e-07
 -4.915507e-07
 -4.544758e-07
 -4.240563e-07
 -3.977416e-07
 -3.735879e-07
 -3.502903e-07
 -3.271334e-07
 -3.037952e-07
 -2.800438e-07
 -2.554835e-07
 -2.295809e-07
 -2.023307e-07
 -1.762186e-07
 -1.595004e-07
 -1.651774e-07
 -1.943446e-07
 -2.188815e-07
 -2.048604e-07
 -1.403372e-07
 -2.540549e-08
 4.442883e-08
 -1.937863e-07
 -4.789678e-07
 -4.551304e-07
 -3.467072e-07
 -2.866417e-07
 -2.455386e-07
 -2.079185e-07
 -1.663034e-07
 -1.142935e-07
 -4.208276e-08
 6.082532e-08
 1.041208e-07
 -1.749890e-07
 -5.252202e-07
 -6.610474e-07
 -1.598342e-06
 -1.951932e-07
 7.742275e-07
 1.771305e-07
 4.150910e-08
 0.000000e+00
 0.000000e+00
 -5.438357e-07
 -7.932346e-07
 -8.106959e-07
 -7.458132e-07
 -6.683891e-07
 -5.989990e-07
 -5.418386e-07
 -4.960665e-07
 -4.594418e-07
 -4.294673e-07
 -4.037520e-07
 -3.801827e-07
 -3.571232e-07
 -3.336479e-07
 -3.096481e-07
 -2.856186e-07
 -2.621742e-07
 -2.396508e-07
 -2.181641e-07
 -1.982355e-07
 -1.817678e-07
 -1.724505e-07
 -1.734903e-07
 -1.819617e-07
 -1.861775e-07
 -1.734541e-07
 -1.410099e-07
 -1.050001e-07
 -1.129977e-07
 -2.048855e-07
 -3.078527e-07
 -3.322215e-07
 -3.020876e-07
 -2.639243e-07
 -2.290933e-07
 -1.951939e-07
 -1.588107e-07
 -1.173780e-07
 -7.111167e-08
 -3.274333e-08
 -4.458439e-08
 -1.405560e-07
 -2.404261e-07
 -2.420893e-07
 -2.264387e-07
 1.728672e-05
 -1.241311e-07
 -5.380192e-08
 -3.148321e-08
 0.000000e+00
 0.000000e+00
 -3.017918e-07
 -4.959314e-07
 -5.705477e-07
 -5.719212e-07
 -5.428920e-07
 -5.067720e-07
 -4.731145e-07
 -4.445309e-07
 -4.207042e-07
 -4.002446e-07
 -3.813790e-07
 -3.622358e-07
 -3.412205e-07
 -3.176398e-07
 -2.922100e-07
 -2.667963e-07
 -2.433296e-07
 -2.228368e-07
 -2.054277e-07
 -1.910520e-07
 -1.802238e-07
 -1.739602e-07
 -1.725148e-07
 -1.735834e-07
 -1.722785e-07
 -1.644577e-07
 -1.515627e-07
 -1.440575e-07
 -1.586489e-07
 -2.002818e-07
 -2.448476e-07
 -2.641659e-07
 -2.569613e-07
 -2.365574e-07
 -2.117596e-07
 -1.850837e-07
 -1.566510e-07
 -1.268126e-07
 -9.840911e-08
 -7.949988e-08
 -8.101304e-08
 -9.725764e-08
 -7.997970e-08
 7.615249e-08
 7.354614e-07
 -1.423462e-07
 -1.424549e-06
 -3.192582e-07
 -1.095913e-07
 0.000000e+00
 0.000000e+00
 -1.889069e-07
 -3.279043e-07
 -4.012765e-07
 -4.247013e-07
 -4.222455e-07
 -4.110142e-07
 -3.988882e-07
 -3.880905e-07
 -3.785459e-07
 -3.694076e-07
 -3.593203e-07
 -3.463120e-07
 -3.281430e-07
 -3.037013e-07
 -2.747632e-07
 -2.458433e-07
 -2.213344e-07
 -2.029138e-07
 -1.897747e-07
 -1.804430e-07
 -1.740133e-07
 -1.701744e-07
 -1.684789e-07
 -1.676584e-07
 -1.658669e-07
 -1.621540e-07
 -1.583028e-07
 -1.593342e-07
 -1.706555e-07
 -1.917884e-07
 -2.134493e-07
 -2.250566e-07
 -2.235807e-07
 -2.124571e-07
 -1.959759e-07
 -1.767762e-07
 -1.562716e-07
 -1.357564e-07
 -1.172803e-07
 -1.034864e-07
 -9.441368e-08
 -8.045275e-08
 -3.772239e-08
 6.051882e-08
 1.319920e-07
 -8.669050e-08
 -3.387728e-07
 -2.725089e-07
 -1.156376e-07
 0.000000e+00
 0.000000e+00
 -1.330261e-07
 -2.313175e-07
 -2.829910e-07
 -3.017828e-07
 -3.086916e-07
 -3.152382e-07
 -3.230108e-07
 -3.303036e-07
 -3.359065e-07
 -3.394039e-07
 -3.401029e-07
 -3.357156e-07
 -3.218791e-07
 -2.948163e-07
 -2.572674e-07
 -2.199236e-07
 -1.927896e-07
 -1.776249e-07
 -1.704472e-07
 -1.670530e-07
 -1.651889e-07
 -1.640800e-07
 -1.634309e-07
 -1.628400e-07
 -1.618673e-07
 -1.606249e-07
 -1.603615e-07
 -1.632671e-07
 -1.709802e-07
 -1.824961e-07
 -1.937601e-07
 -2.002323e-07
 -1.998507e-07
 -1.933546e-07
 -1.826972e-07
 -1.697608e-07
 -1.560493e-07
 -1.428442e-07
 -1.311840e-07
 -1.211063e-07
 -1.099208e-07
 -9.091795e-08
 -5.689485e-08
 -1.519085e-08
 -9.135772e-09
 -7.939038e-08
 -1.548506e-07
 -1.467306e-07
 -7.959048e-08
 0.000000e+00
 0.000000e+00
 -1.163401e-07
 -1.863607e-07
 -1.986972e-07
 -1.885584e-07
 -1.936672e-07
 -2.178242e-07
 -2.477996e-07
 -2.743684e-07
 -2.953328e-07
 -3.119191e-07
 -3.255346e-07
 -3.345218e-07
 -3.300514e-07
 -2.981428e-07
 -2.394049e-07
 -1.820281e-07
 -1.512564e-07
 -1.444487e-07
 -1.477354e-07
 -1.523865e-07
 -1.556750e-07
 -1.574887e-07
 -1.583016e-07
 -1.584941e-07
 -1.583494e-07
 -1.583152e-07
 -1.591865e-07
 -1.619017e-07
 -1.668861e-07
 -1.733608e-07
 -1.793740e-07
 -1.827887e-07
 -1.824181e-07
 -1.783687e-07
 -1.716221e-07
 -1.634885e-07
 -1.553009e-07
 -1.482542e-07
 -1.430549e-07
 -1.390408e-07
 -1.328499e-07
 -1.182834e-07
 -9.116602e-08
 -5.969090e-08
 -4.610971e-08
 -6.205731e-08
 -8.398062e-08
 -8.025714e-08
 -4.739270e-08
 0.000000e+00
 0.000000e+00
 -1.521945e-07
 -2.091586e-07
 -1.369494e-07
 -5.224627e-08
 -5.696258e-08
 -1.159284e-07
 -1.772859e-07
 -2.245645e-07
 -2.591632e-07
 -2.869543e-07
 -3.143072e-07
 -3.452146e-07
 -3.680816e-07
 -3.347790e-07
 -2.194226e-07
 -1.111364e-07
 -8.419717e-08
 -1.025897e-07
 -1.247136e-07
 -1.394572e-07
 -1.476973e-07
 -1.518651e-07
 -1.537694e-07
 -1.545149e-07
 -1.547905e-07
 -1.551393e-07
 -1.560849e-07
 -1.580443e-07
 -1.610729e-07
 -1.646514e-07
 -1.677726e-07
 -1.693705e-07
 -1.688115e-07
 -1.661256e-07
 -1.619330e-07
 -1.572519e-07
 -1.533466e-07
 -1.516080e-07
 -1.532720e-07
 -1.585348e-07
 -1.642562e-07
 -1.604346e-07
 -1.331221e-07
 -8.481189e-08
 -4.555151e-08
 -3.705901e-08
 -4.544953e-08
 -4.597422e-08
 -2.893968e-08
 0.000000e+00
 0.000000e+00
 -2.892751e-07
 -3.984341e-07
 -8.310496e-08
 2.071938e-07
 1.316499e-07
 -1.929505e-08
 -1.232800e-07
 -1.879397e-07
 -2.298492e-07
 -2.622335e-07
 -2.978777e-07
 -3.551443e-07
 -4.626090e-07
 -4.832082e-07
 -1.880930e-07
 6.858088e-08
 2.429455e-08
 -6.329552e-08
 -1.104770e-07
 -1.331045e-07