<VTKFile type="UnstructuredGrid"  version="0.1"   >
<UnstructuredGrid>  
<Piece  NumberOfPoints="     2601"  NumberOfCells="     5000">  
<Points>  
<DataArray  type="Float64"  NumberOfComponents="3"  format="ascii">  
 0.000000 0.000000 0.000000 
 0.020000 0.000000 0.000000 
 0.040000 0.000000 0.000000 
 0.060000 0.000000 0.000000 
 0.080000 0.000000 0.000000 
 0.100000 0.000000 0.000000 
 0.120000 0.000000 0.000000 
 0.140000 0.000000 0.000000 
 0.160000 0.000000 0.000000 
 0.180000 0.000000 0.000000 
 0.200000 0.000000 0.000000 
 0.220000 0.000000 0.000000 
 0.240000 0.000000 0.000000 
 0.260000 0.000000 0.000000 
 0.280000 0.000000 0.000000 
 0.300000 0.000000 0.000000 
 0.320000 0.000000 0.000000 
 0.340000 0.000000 0.000000 
 0.360000 0.000000 0.000000 
 0.380000 0.000000 0.000000 
 0.400000 0.000000 0.000000 
 0.420000 0.000000 0.000000 
 0.440000 0.000000 0.000000 
 0.460000 0.000000 0.000000 
 0.480000 0.000000 0.000000 
 0.500000 0.000000 0.000000 
 0.520000 0.000000 0.000000 
 0.540000 0.000000 0.000000 
 0.560000 0.000000 0.000000 
 0.580000 0.000000 0.000000 
 0.600000 0.000000 0.000000 
 0.620000 0.000000 0.000000 
 0.640000 0.000000 0.000000 
 0.660000 0.000000 0.000000 
 0.680000 0.000000 0.000000 
 0.700000 0.000000 0.000000 
 0.720000 0.000000 0.000000 
 0.740000 0.000000 0.000000 
 0.760000 0.000000 0.000000 
 0.780000 0.000000 0.000000 
 0.800000 0.000000 0.000000 
 0.820000 0.000000 0.000000 
 0.840000 0.000000 0.000000 
 0.860000 0.000000 0.000000 
 0.880000 0.000000 0.000000 
 0.900000 0.000000 0.000000 
 0.920000 0.000000 0.000000 
 0.940000 0.000000 0.000000 
 0.960000 0.000000 0.000000 
 0.980000 0.000000 0.000000 
 1.000000 0.000000 0.000000 
 0.000000 0.020000 0.000000 
 0.020000 0.020000 0.000000 
 0.040000 0.020000 0.000000 
 0.060000 0.020000 0.000000 
 0.080000 0.020000 0.000000 
 0.100000 0.020000 0.000000 
 0.120000 0.020000 0.000000 
 0.140000 0.020000 0.000000 
 0.160000 0.020000 0.000000 
 0.180000 0.020000 0.000000 
 0.200000 0.020000 0.000000 
 0.220000 0.020000 0.000000 
 0.240000 0.020000 0.000000 
 0.260000 0.020000 0.000000 
 0.280000 0.020000 0.000000 
 0.300000 0.020000 0.000000 
 0.320000 0.020000 0.000000 
 0.340000 0.020000 0.000000 
 0.360000 0.020000 0.000000 
 0.380000 0.020000 0.000000 
 0.400000 0.020000 0.000000 
 0.420000 0.020000 0.000000 
 0.440000 0.020000 0.000000 
 0.460000 0.020000 0.000000 
 0.480000 0.020000 0.000000 
 0.500000 0.020000 0.000000 
 0.520000 0.020000 0.000000 
 0.540000 0.020000 0.000000 
 0.560000 0.020000 0.000000 
 0.580000 0.020000 0.000000 
 0.600000 0.020000 0.000000 
 0.620000 0.020000 0.000000 
 0.640000 0.020000 0.000000 
 0.660000 0.020000 0.000000 
 0.680000 0.020000 0.000000 
 0.700000 0.020000 0.000000 
 0.720000 0.020000 0.000000 
 0.740000 0.020000 0.000000 
 0.760000 0.020000 0.000000 
 0.780000 0.020000 0.000000 
 0.800000 0.020000 0.000000 
 0.820000 0.020000 0.000000 
 0.840000 0.020000 0.000000 
 0.860000 0.020000 0.000000 
 0.880000 0.020000 0.000000 
 0.900000 0.020000 0.000000 
 0.920000 0.020000 0.000000 
 0.940000 0.020000 0.000000 
 0.960000 0.020000 0.000000 
 0.980000 0.020000 0.000000 
 1.000000 0.020000 0.000000 
 0.000000 0.040000 0.000000 
 0.020000 0.040000 0.000000 
 0.040000 0.040000 0.000000 
 0.060000 0.040000 0.000000 
 0.080000 0.040000 0.000000 
 0.100000 0.040000 0.000000 
 0.120000 0.040000 0.000000 
 0.140000 0.040000 0.000000 
 0.160000 0.040000 0.000000 
 0.180000 0.040000 0.000000 
 0.200000 0.040000 0.000000 
 0.220000 0.040000 0.000000 
 0.240000 0.040000 0.000000 
 0.260000 0.040000 0.000000 
 0.280000 0.040000 0.000000 
 0.300000 0.040000 0.000000 
 0.320000 0.040000 0.000000 
 0.340000 0.040000 0.000000 
 0.360000 0.040000 0.000000 
 0.380000 0.040000 0.000000 
 0.400000 0.040000 0.000000 
 0.420000 0.040000 0.000000 
 0.440000 0.040000 0.000000 
 0.460000 0.040000 0.000000 
 0.480000 0.040000 0.000000 
 0.500000 0.040000 0.000000 
 0.520000 0.040000 0.000000 
 0.540000 0.040000 0.000000 
 0.560000 0.040000 0.000000 
 0.580000 0.040000 0.000000 
 0.600000 0.040000 0.000000 
 0.620000 0.040000 0.000000 
 0.640000 0.040000 0.000000 
 0.660000 0.040000 0.000000 
 0.680000 0.040000 0.000000 
 0.700000 0.040000 0.000000 
 0.720000 0.040000 0.000000 
 0.740000 0.040000 0.000000 
 0.760000 0.040000 0.000000 
 0.780000 0.040000 0.000000 
 0.800000 0.040000 0.000000 
 0.820000 0.040000 0.000000 
 0.840000 0.040000 0.000000 
 0.860000 0.040000 0.000000 
 0.880000 0.040000 0.000000 
 0.900000 0.040000 0.000000 
 0.920000 0.040000 0.000000 
 0.940000 0.040000 0.000000 
 0.960000 0.040000 0.000000 
 0.980000 0.040000 0.000000 
 1.000000 0.040000 0.000000 
 0.000000 0.060000 0.000000 
 0.020000 0.060000 0.000000 
 0.040000 0.060000 0.000000 
 0.060000 0.060000 0.000000 
 0.080000 0.060000 0.000000 
 0.100000 0.060000 0.000000 
 0.120000 0.060000 0.000000 
 0.140000 0.060000 0.000000 
 0.160000 0.060000 0.000000 
 0.180000 0.060000 0.000000 
 0.200000 0.060000 0.000000 
 0.220000 0.060000 0.000000 
 0.240000 0.060000 0.000000 
 0.260000 0.060000 0.000000 
 0.280000 0.060000 0.000000 
 0.300000 0.060000 0.000000 
 0.320000 0.060000 0.000000 
 0.340000 0.060000 0.000000 
 0.360000 0.060000 0.000000 
 0.380000 0.060000 0.000000 
 0.400000 0.060000 0.000000 
 0.420000 0.060000 0.000000 
 0.440000 0.060000 0.000000 
 0.460000 0.060000 0.000000 
 0.480000 0.060000 0.000000 
 0.500000 0.060000 0.000000 
 0.520000 0.060000 0.000000 
 0.540000 0.060000 0.000000 
 0.560000 0.060000 0.000000 
 0.580000 0.060000 0.000000 
 0.600000 0.060000 0.000000 
 0.620000 0.060000 0.000000 
 0.640000 0.060000 0.000000 
 0.660000 0.060000 0.000000 
 0.680000 0.060000 0.000000 
 0.700000 0.060000 0.000000 
 0.720000 0.060000 0.000000 
 0.740000 0.060000 0.000000 
 0.760000 0.060000 0.000000 
 0.780000 0.060000 0.000000 
 0.800000 0.060000 0.000000 
 0.820000 0.060000 0.000000 
 0.840000 0.060000 0.000000 
 0.860000 0.060000 0.000000 
 0.880000 0.060000 0.000000 
 0.900000 0.060000 0.000000 
 0.920000 0.060000 0.000000 
 0.940000 0.060000 0.000000 
 0.960000 0.060000 0.000000 
 0.980000 0.060000 0.000000 
 1.000000 0.060000 0.000000 
 0.000000 0.080000 0.000000 
 0.020000 0.080000 0.000000 
 0.040000 0.080000 0.000000 
 0.060000 0.080000 0.000000 
 0.080000 0.080000 0.000000 
 0.100000 0.080000 0.000000 
 0.120000 0.080000 0.000000 
 0.140000 0.080000 0.000000 
 0.160000 0.080000 0.000000 
 0.180000 0.080000 0.000000 
 0.200000 0.080000 0.000000 
 0.220000 0.080000 0.000000 
 0.240000 0.080000 0.000000 
 0.260000 0.080000 0.000000 
 0.280000 0.080000 0.000000 
 0.300000 0.080000 0.000000 
 0.320000 0.080000 0.000000 
 0.340000 0.080000 0.000000 
 0.360000 0.080000 0.000000 
 0.380000 0.080000 0.000000 
 0.400000 0.080000 0.000000 
 0.420000 0.080000 0.000000 
 0.440000 0.080000 0.000000 
 0.460000 0.080000 0.000000 
 0.480000 0.080000 0.000000 
 0.500000 0.080000 0.000000 
 0.520000 0.080000 0.000000 
 0.540000 0.080000 0.000000 
 0.560000 0.080000 0.000000 
 0.580000 0.080000 0.000000 
 0.600000 0.080000 0.000000 
 0.620000 0.080000 0.000000 
 0.640000 0.080000 0.000000 
 0.660000 0.080000 0.000000 
 0.680000 0.080000 0.000000 
 0.700000 0.080000 0.000000 
 0.720000 0.080000 0.000000 
 0.740000 0.080000 0.000000 
 0.760000 0.080000 0.000000 
 0.780000 0.080000 0.000000 
 0.800000 0.080000 0.000000 
 0.820000 0.080000 0.000000 
 0.840000 0.080000 0.000000 
 0.860000 0.080000 0.000000 
 0.880000 0.080000 0.000000 
 0.900000 0.080000 0.000000 
 0.920000 0.080000 0.000000 
 0.940000 0.080000 0.000000 
 0.960000 0.080000 0.000000 
 0.980000 0.080000 0.000000 
 1.000000 0.080000 0.000000 
 0.000000 0.100000 0.000000 
 0.020000 0.100000 0.000000 
 0.040000 0.100000 0.000000 
 0.060000 0.100000 0.000000 
 0.080000 0.100000 0.000000 
 0.100000 0.100000 0.000000 
 0.120000 0.100000 0.000000 
 0.140000 0.100000 0.000000 
 0.160000 0.100000 0.000000 
 0.180000 0.100000 0.000000 
 0.200000 0.100000 0.000000 
 0.220000 0.100000 0.000000 
 0.240000 0.100000 0.000000 
 0.260000 0.100000 0.000000 
 0.280000 0.100000 0.000000 
 0.300000 0.100000 0.000000 
 0.320000 0.100000 0.000000 
 0.340000 0.100000 0.000000 
 0.360000 0.100000 0.000000 
 0.380000 0.100000 0.000000 
 0.400000 0.100000 0.000000 
 0.420000 0.100000 0.000000 
 0.440000 0.100000 0.000000 
 0.460000 0.100000 0.000000 
 0.480000 0.100000 0.000000 
 0.500000 0.100000 0.000000 
 0.520000 0.100000 0.000000 
 0.540000 0.100000 0.000000 
 0.560000 0.100000 0.000000 
 0.580000 0.100000 0.000000 
 0.600000 0.100000 0.000000 
 0.620000 0.100000 0.000000 
 0.640000 0.100000 0.000000 
 0.660000 0.100000 0.000000 
 0.680000 0.100000 0.000000 
 0.700000 0.100000 0.000000 
 0.720000 0.100000 0.000000 
 0.740000 0.100000 0.000000 
 0.760000 0.100000 0.000000 
 0.780000 0.100000 0.000000 
 0.800000 0.100000 0.000000 
 0.820000 0.100000 0.000000 
 0.840000 0.100000 0.000000 
 0.860000 0.100000 0.000000 
 0.880000 0.100000 0.000000 
 0.900000 0.100000 0.000000 
 0.920000 0.100000 0.000000 
 0.940000 0.100000 0.000000 
 0.960000 0.100000 0.000000 
 0.980000 0.100000 0.000000 
 1.000000 0.100000 0.000000 
 0.000000 0.120000 0.000000 
 0.020000 0.120000 0.000000 
 0.040000 0.120000 0.000000 
 0.060000 0.120000 0.000000 
 0.080000 0.120000 0.000000 
 0.100000 0.120000 0.000000 
 0.120000 0.120000 0.000000 
 0.140000 0.120000 0.000000 
 0.160000 0.120000 0.000000 
 0.180000 0.120000 0.000000 
 0.200000 0.120000 0.000000 
 0.220000 0.120000 0.000000 
 0.240000 0.120000 0.000000 
 0.260000 0.120000 0.000000 
 0.280000 0.120000 0.000000 
 0.300000 0.120000 0.000000 
 0.320000 0.120000 0.000000 
 0.340000 0.120000 0.000000 
 0.360000 0.120000 0.000000 
 0.380000 0.120000 0.000000 
 0.400000 0.120000 0.000000 
 0.420000 0.120000 0.000000 
 0.440000 0.120000 0.000000 
 0.460000 0.120000 0.000000 
 0.480000 0.120000 0.000000 
 0.500000 0.120000 0.000000 
 0.520000 0.120000 0.000000 
 0.540000 0.120000 0.000000 
 0.560000 0.120000 0.000000 
 0.580000 0.120000 0.000000 
 0.600000 0.120000 0.000000 
[...]
<PointData  Scalars="U"> 
<DataArray  type="Float64"  Name="U"  format="ascii"> 
 0.000000e+00
 0.000000e+00
 0.000000e+00
 0.000000e+00
 0.000000e+00
 0.000000e+00
 0.000000e+00
 0.000000e+00
 0.000000e+00
 0.000000e+00
 0.000000e+00
 0.000000e+00
 0.000000e+00
 0.000000e+00
 0.000000e+00
 0.000000e+00
 0.000000e+00
 0.000000e+00
 0.000000e+00
 0.000000e+00
 0.000000e+00
 0.000000e+00
 0.000000e+00
 0.000000e+00
 0.000000e+00
 0.000000e+00
 0.000000e+00
 0.000000e+00
 0.000000e+00
 0.000000e+00
 0.000000e+00
 0.000000e+00
 0.000000e+00
 0.000000e+00
 0.000000e+00
 0.000000e+00
 0.000000e+00
 0.000000e+00
 0.000000e+00
 0.000000e+00
 0.000000e+00
 0.000000e+00
 0.000000e+00
 0.000000e+00
 0.000000e+00
 0.000000e+00
 0.000000e+00
 0.000000e+00
 0.000000e+00
 0.000000e+00
 0.000000e+00
 0.000000e+00
 -2.221851e-10
 -4.241916e-11
 8.040675e-10
 2.334551e-09
 4.286186e-09
 6.204198e-09
 7.622410e-09
 8.232258e-09
 7.947799e-09
 6.864262e-09
 5.181637e-09
 3.167697e-09
 1.188016e-09
 -2.383310e-10
 -4.951595e-10
 7.098195e-10
 2.213668e-09
 -1.345642e-09
 -2.959282e-08
 -1.689139e-07
 -1.247666e-06
 -1.710851e-08
 7.710680e-07
 1.783925e-07
 2.139761e-07
 1.742121e-05
 -4.517421e-07
 -2.873795e-07
 -1.982684e-07
 -1.038222e-06
 1.407405e-05
 -3.714914e-06
 -1.099168e-06
 1.680650e-05
 -5.176446e-07
 -3.159218e-07
 1.705680e-05
 -4.408209e-07
 -2.185190e-07
 -1.072753e-07
 -7.507120e-08
 -6.594092e-08
 -5.872591e-08
 -5.032447e-08
 -4.131864e-08
 -3.234426e-08
 -2.365214e-08
 -1.526338e-08
 -6.895640e-09
 0.000000e+00
 0.000000e+00
 -8.697651e-10
 -7.949641e-10
 8.737084e-10
 4.212954e-09
 8.604477e-09
 1.293787e-08
 1.609363e-08
 1.738997e-08
 1.671080e-08
 1.433674e-08
 1.070973e-08
 6.329226e-09
 1.848689e-09
 -1.681130e-09
 -2.662212e-09
 5.408347e-10
 7.821228e-09
 1.499091e-08
 1.481891e-08
 1.491532e-08
 -1.039167e-08
 1.748409e-05
 -2.842893e-08
 -9.274862e-07
 8.660463e-07
 5.110870e-07
 -2.701828e-06
 -6.072651e-07
 3.166731e-07
 -1.557224e-07
 -1.794690e-06
 -3.005296e-06
 -7.152733e-07
 -9.833278e-07
 -1.920751e-06
 -1.488905e-07
 -7.920613e-07
 -1.686649e-06
 -2.975334e-07
 -1.345462e-07
 -1.354274e-07
 -1.323034e-07
 -1.189889e-07
 -1.011978e-07
 -8.253132e-08
 -6.437485e-08
 -4.697126e-08
 -3.035248e-08
 -1.469521e-08
 0.000000e+00
 0.000000e+00
 -2.510877e-09
 -3.240780e-09
 -8.532637e-10
 4.947641e-09
 1.298059e-08
 2.093276e-08
 2.652789e-08
 2.859087e-08
 2.719118e-08
 2.306574e-08
 1.701217e-08
 9.657837e-09
 1.666895e-09
 -5.625459e-09
 -9.273106e-09
 -4.456028e-09
 1.272006e-08
 3.965449e-08
 7.068138e-08
 1.430042e-07
 7.574804e-07
 1.332237e-07
 -9.081896e-07
 1.256368e-07
 1.764017e-05
 -1.552969e-07
 -5.678494e-07
 1.678132e-05
 -6.959055e-07
 -8.269398e-07
 -1.254944e-06
 -1.446070e-06
 -1.142065e-06
 -1.031562e-06
 -1.130018e-06
 -1.087844e-06
 -1.920632e-06
 -5.324715e-07
 4.342578e-07
 -1.149419e-07
 -2.108795e-07
 -2.091879e-07
 -1.832119e-07
 -1.525683e-07
 -1.230468e-07
 -9.563704e-08
 -6.954387e-08
 -4.448710e-08
 -2.129029e-08
 0.000000e+00
 0.000000e+00
 -6.000207e-09
 -8.979558e-09
 -6.264686e-09
 3.232763e-09
 1.744715e-08
 3.150009e-08
 4.072414e-08
 4.336436e-08
 4.039515e-08
 3.368225e-08
 2.460972e-08
 1.372298e-08
 1.063547e-09
 -1.281162e-08
 -2.436334e-08
 -2.308203e-08
 6.460725e-09
 6.402987e-08
 1.143000e-07
 7.258119e-08
 -9.212775e-07
 1.997840e-07
 9.918992e-07
 1.023827e-06
 3.660307e-08
 -1.296001e-06
 2.102831e-07
 -6.693758e-07
 -2.037205e-06
 -1.087795e-06
 -1.079441e-06
 -1.094844e-06
 -1.010070e-06
 -9.459252e-07
 -1.013135e-06
 -1.975720e-06
 -6.632198e-07
 1.770101e-05
 -3.419049e-07
 -3.805864e-07
 -3.569547e-07
 -3.041063e-07
 -2.503817e-07
 -2.021236e-07
 -1.611440e-07
 -1.257180e-07
 -9.136009e-08
 -5.661007e-08
 -2.552852e-08
 0.000000e+00
 0.000000e+00
 -1.253643e-08
 -2.065593e-08
 -1.904419e-08
 -3.767667e-09
 2.212240e-08
 4.748680e-08
 6.200766e-08
 6.387236e-08
 5.723035e-08
 4.650157e-08
 3.392262e-08
 1.960921e-08
 2.096606e-09
 -2.107007e-08
 -5.074159e-08
 -7.248189e-08
 -3.498383e-08
 9.176163e-08
 2.234723e-07
 2.885216e-07
 2.351300e-07
 1.761646e-05
 1.300186e-07
 1.808974e-07
 -5.893313e-08
 -3.220928e-07
 -3.447207e-07
 -5.864794e-07
 -9.173701e-07
 -9.635446e-07
 -9.258216e-07
 -8.986407e-07
 -8.371682e-07
 -7.451130e-07
 -6.097366e-07
 -4.192415e-07
 1.771307e-05
 -6.291087e-07
 -1.872979e-06
 -7.550600e-07
 -5.200146e-07
 -3.975581e-07
 -3.116916e-07
 -2.437854e-07
 -1.930034e-07
 -1.553224e-07
 -1.149114e-07
 -6.462200e-08
 -2.246496e-08
 0.000000e+00
 0.000000e+00
 -2.324410e-08
 -4.214802e-08
 -4.677680e-08
 -2.312867e-08
 2.751180e-08
 7.613145e-08
 9.700641e-08
 9.279850e-08
 7.771797e-08
 6.081363e-08
 4.471326e-08
 2.849842e-08
 8.835250e-09
 -2.122941e-08
 -7.619281e-08
 -1.812762e-07
 -1.952080e-07
 1.185220e-07
 4.255187e-07
 5.339043e-07
 1.058206e-06
 6.200537e-08
 -1.307287e-06
 -2.798062e-07
 -1.970258e-07
 -2.535441e-07
 -3.455877e-07
 -4.999861e-07
 -6.646010e-07
 -7.495928e-07
 -7.673275e-07
 -7.483873e-07
 -6.910894e-07
 -5.745568e-07
 -3.184176e-07
 4.517632e-07
 -3.742464e-07
 -1.905639e-06
 -1.078008e-06
 -8.247060e-07
 -5.978546e-07
 -4.611833e-07
 -3.579876e-07
 -2.675668e-07
 -2.086540e-07
 -1.890361e-07
 -1.546137e-07
 -6.319200e-08
 7.776225e-09
 0.000000e+00
 0.000000e+00
 -3.724067e-08
 -7.652556e-08
 -1.053295e-07
 -7.598511e-08
 3.574894e-08
 1.390056e-07
 1.587077e-07
 1.311823e-07
 9.890811e-08
 7.380090e-08
 5.527662e-08
 4.030834e-08
 2.480831e-08
 1.161769e-09
 -5.168802e-08
 -2.117253e-07
 -1.265678e-06
 7.528387e-08
 1.024871e-06
 4.517295e-07
 2.987098e-07
 -4.492846e-08
 -3.802367e-07
 -3.594376e-07
 -2.222265e-07
 -1.818426e-07
 -2.588055e-07
 -3.931142e-07
 -5.196957e-07
 -6.023038e-07
 -6.378619e-07
 -6.354054e-07
 -5.970435e-07
 -5.140060e-07
 -3.726842e-07
 -2.691331e-07
 -5.045691e-07
 -8.526276e-07
 -8.790136e-07
 -7.273415e-07
 -5.890587e-07
 -4.972816e-07
 -4.001747e-07
 -2.586616e-07
 -1.701118e-07
 -2.364377e-07
 -2.825844e-07
 -3.699595e-08
 1.499426e-07
 0.000000e+00
 0.000000e+00
 -4.768771e-08
 -1.128360e-07
 -2.225857e-07
 -2.409856e-07
 5.692802e-08
 3.131204e-07
 2.638317e-07
 1.679986e-07
 1.114384e-07
 7.999297e-08
 6.218307e-08
 5.220503e-08
 4.728174e-08
 4.634385e-08
 5.037227e-08
 6.793738e-08
 4.267679e-08
 1.750381e-05
 3.992632e-08
 3.801658e-08
 -7.106692e-08
 -2.354910e-07
 -3.917040e-07
 -4.046785e-07
 -1.449441e-07
 2.649936e-08
 -1.169878e-07
 -2.989505e-07
 -4.253572e-07
 -5.038786e-07
 -5.446734e-07
 -5.565387e-07
 -5.456912e-07
 -5.166203e-07
 -4.813016e-07
 -4.828367e-07
 -5.753899e-07
 -7.024152e-07
 -7.250261e-07
 -6.155002e-07
 -5.128269e-07
 -5.385656e-07
 -5.210331e-07
 -1.963224e-07
 5.114505e-08
 -1.388778e-07
 -1.294190e-06
 -3.829850e-08
 8.043052e-07
 0.000000e+00
 0.000000e+00
 -4.289728e-08
 -1.053329e-07
 -2.627251e-07
 -1.306365e-06
 3.795676e-08
 9.652091e-07
 3.300975e-07
 1.615405e-07
 1.002877e-07
 7.349541e-08
 6.171574e-08
 5.929537e-08
 6.602581e-08
 8.733734e-08
 1.431184e-07
 3.078254e-07
 9.430653e-07
 1.894910e-08
 -1.333412e-06
 -3.472424e-07
 -3.565562e-07
 -4.596135e-07
 -4.024859e-07
 -1.278532e-06
 -5.681549e-08
 7.164819e-07
 -2.299483e-08
 -2.642750e-07
 -3.785763e-07
 -4.430473e-07
 -4.799121e-07
 -4.999455e-07
 -5.130957e-07
 -5.312736e-07
 -5.604940e-07
 -5.810781e-07
 -5.913750e-07
 -6.801752e-07
 -7.404713e-07
 -4.907772e-07
 -2.775728e-07
 -4.583489e-07
 -1.546543e-06
 -1.466141e-07
 8.577044e-07
 2.550443e-07
 4.852505e-08
 1.744619e-05
 -2.574964e-08
 0.000000e+00
 0.000000e+00
 -2.480090e-08
 -3.382359e-08
 -2.455560e-09
 1.343209e-08
 1.751677e-05
 7.672183e-08
 1.017304e-07
 7.486278e-08
 6.082220e-08
 5.371311e-08
 5.262661e-08
 5.800185e-08
 7.202229e-08
 1.002184e-07
 1.542449e-07
 2.487478e-07
 2.977388e-07
 3.871794e-08
 -2.767489e-07
 -3.216569e-07
 -4.091913e-07
 -1.463537e-06
 -1.546944e-07
 6.921641e-07
 1.747463e-05
 -1.874941e-07
 -2.531711e-07
 -3.281432e-07
 -3.753248e-07
 -4.085372e-07
 -4.319742e-07
 -4.507257e-07
 -4.754824e-07
 -5.284577e-07
 -6.483252e-07
 -7.140513e-07
 -5.215178e-07
 -4.955529e-07
 -1.662311e-06
 -4.294661e-07
 5.033288e-07
 -1.334274e-07
 -3.186779e-07
 1.738282e-05
 1.989985e-07
 3.388447e-07
 8.868142e-07
 -3.326094e-08
 -1.278019e-06
 0.000000e+00
 0.000000e+00
 -2.069287e-08
 -1.030115e-09
 1.843212e-07
 9.254647e-07
 1.087544e-07
 -1.196318e-06
 -1.586141e-07
 -2.142842e-08
 1.482589e-08
 2.807881e-08
 3.734065e-08
 4.857718e-08
 6.486892e-08
 8.877594e-08
 1.208337e-07
 1.492852e-07
 1.315623e-07
 3.034179e-08
 -8.131297e-08
 -1.130369e-07
 -7.697788e-08
 -5.568782e-08
 1.754870e-05
 7.005869e-07
 -2.140661e-07
 -1.581139e-06
 -5.498695e-07
 -4.138174e-07
 -3.850699e-07
 -3.840490e-07
 -3.896040e-07
 -3.973266e-07
 -4.129871e-07
 -4.600379e-07
 -6.221021e-07
 -1.693694e-06
 -3.952620e-07
 4.762228e-07
 -2.994913e-07
 1.697510e-05
 -2.398023e-07
 2.834582e-08
 -4.565545e-07
 -1.154372e-07
 -5.047038e-07
 2.166611e-08
 9.194253e-08
 -1.041534e-07
 -2.499261e-07
 0.000000e+00
 0.000000e+00
 -4.244871e-08
 -1.069149e-07
 -4.245657e-08
 2.956407e-07
 2.955064e-07
 -4.307432e-08
 -1.088588e-07
 -4.795976e-08
 -1.472118e-08
 4.895908e-09
 1.974648e-08
 3.408573e-08
 4.995971e-08
 6.773194e-08
 8.467990e-08
 9.203213e-08
 7.633689e-08
 3.693789e-08
 5.888393e-09
 3.396420e-08
 2.032471e-07
 8.770145e-07
 3.942237e-08
 -1.250181e-06
 -4.540786e-07
 -5.957984e-07
 -5.345783e-07
 -4.217978e-07
 -3.737517e-07
 -3.551490e-07
 -3.464889e-07
 -3.383134e-07
 -3.260659e-07
 -3.065934e-07
 -2.703235e-07
 -2.700846e-07
 1.723896e-05
 -9.209789e-08
 4.322753e-07
 -1.524511e-06
 -1.464935e-06
 6.240134e-07
 1.702840e-07
 1.727078e-05
 -4.620431e-07
 -3.259239e-07
 -2.577522e-07
 -3.271083e-07
 -1.940325e-07
 0.000000e+00
 0.000000e+00
 -4.028584e-08
 -1.763697e-07
 -1.212420e-06
 9.362808e-08
 9.102553e-07
 1.677150e-07
 -2.072600e-08
 -4.564710e-08
 -3.205912e-08
 -1.423851e-08
 2.348310e-09
 1.782980e-08
 3.270395e-08
 4.644918e-08
 5.677337e-08
 5.960321e-08
 5.185230e-08
 3.796908e-08
 3.451159e-08
 6.609106e-08
 1.543051e-07
 2.143512e-07
 -2.440076e-08
 -3.419940e-07
 -4.229334e-07
 -4.271094e-07
 -4.081445e-07
 -3.670595e-07
 -3.360447e-07
 -3.178631e-07
 -3.036508e-07
 -2.836699e-07
 -2.458214e-07
 -1.654228e-07
 3.644367e-08
 7.286968e-07
 -1.019929e-07
 -1.294299e-06
 -1.245114e-07
 -1.823993e-07
 1.713343e-05
 -9.225125e-08
 6.440915e-07
 -4.109771e-07
 -1.827814e-06
 -5.188132e-07
 -2.434659e-07
 -1.335522e-06
 -2.415428e-07
 0.000000e+00
 0.000000e+00
 2.808317e-08
 6.413919e-08
 4.468603e-08
 1.748745e-05
 -1.556415e-08
 -3.338925e-08
 -6.904643e-08
 -6.674745e-08
 -5.034619e-08
 -3.155916e-08
 -1.395304e-08
 2.004758e-09
 1.627192e-08
 2.821407e-08
 3.637875e-08
 3.904498e-08
 3.585758e-08
 2.996390e-08
 2.823600e-08
 3.662770e-08
 4.681549e-08
 1.647566e-08
 -9.603808e-08
 -2.276235e-07
 -2.952981e-07
 -3.111451e-07
 -3.061482e-07
 -2.945668e-07
 -2.844958e-07
 -2.766998e-07
 -2.663489e-07
 -2.453705e-07
 -2.018698e-07
 -1.180382e-07
 2.584160e-08
 1.484209e-07
 -5.022681e-09
 -1.661000e-07
 5.328971e-08
 7.570124e-07
 -1.342792e-07
 -1.359198e-06
 -2.520944e-07
 -4.802798e-07
 -1.769480e-06
 -3.756012e-07
 7.042291e-07
 1.240809e-07
 1.745593e-05
 0.000000e+00
 0.000000e+00
 9.159590e-08
 2.762361e-07
 9.200180e-07
 -3.208176e-09
 -1.346930e-06
 -3.056465e-07
 -1.535495e-07
 -9.970136e-08
 -6.965009e-08
 -4.727358e-08
 -2.857702e-08
 -1.224601e-08
 2.009201e-09
 1.367758e-08
 2.168509e-08
 2.497512e-08
 2.333012e-08
 1.783899e-08
 9.977393e-09
 -1.501528e-09
 -2.480414e-08
 -7.304806e-08
 -1.439093e-07
 -2.022392e-07
 -2.189489e-07
 -2.120155e-07
 -2.105904e-07
 -2.189918e-07
 -2.297758e-07
 -2.376528e-07
 -2.390811e-07
 -2.285841e-07
 -1.969658e-07
 -1.349341e-07
 -4.888110e-08
 1.671104e-08
 1.794186e-08
 2.202431e-08
 1.159254e-07
 1.911626e-07
 -2.902096e-08
 -2.776409e-07
 -2.407236e-07
 -1.832456e-07
 -2.179638e-07
 1.733008e-05
 1.264898e-07
 9.161575e-07
 2.102884e-07
 0.000000e+00
 0.000000e+00
 8.748412e-08
 2.005652e-07
 2.591956e-07
 7.229633e-09
 -2.902359e-07
 -2.746114e-07
 -1.708283e-07
 -1.153513e-07
 -8.261285e-08
 -5.960802e-08
 -4.098233e-08
 -2.455822e-08
 -9.771578e-09
 2.795764e-09
 1.185595e-08
 1.609730e-08
 1.478018e-08
 7.688802e-09
 -5.934806e-09
 -2.928716e-08
 -6.920240e-08
 -1.321531e-07
 -2.049728e-07
 -2.296919e-07
 -1.677800e-07
 -1.011870e-07
 -1.035979e-07
 -1.418957e-07
 -1.782785e-07
 -2.046790e-07
 -2.229904e-07
 -2.325680e-07
 -2.245317e-07
 -1.836614e-07
 -1.079352e-07
 -2.307685e-08
 4.371767e-08
 8.987182e-08
 1.179453e-07
 1.000355e-07
 1.048657e-08
 -7.051895e-08
 -4.575301e-08
 1.304593e-07
 8.031138e-07
 -2.239350e-08
 -1.178402e-06
 4.878849e-08
 1.361369e-07
 0.000000e+00
 0.000000e+00
 5.282811e-08
 9.348933e-08
 8.124186e-08
 -1.882473e-08
 -1.307774e-07
 -1.633485e-07
 -1.407343e-07
 -1.108837e-07
 -8.698756e-08
 -6.801035e-08
 -5.142923e-08
 -3.542679e-08
 -1.946045e-08
 -4.581557e-09
 6.959866e-09
 1.289585e-08
 1.194254e-08
 3.658572e-09
 -1.284578e-08
 -4.082518e-08
 -8.821500e-08
 -1.708355e-07
 -3.138986e-07
 -3.747223e-07
 -1.182241e-07
 1.055849e-07
 3.525674e-08
 -7.287084e-08
 -1.378481e-07
 -1.792606e-07
 -2.141458e-07
 -2.524145e-07
 -2.870847e-07
 -2.735823e-07
 -1.763619e-07
 -3.897416e-08
 9.168683e-08
 1.688976e-07
 1.615425e-07
 1.073211e-07
 4.460103e-08
 8.502216e-09
 3.238513e-08
 1.309169e-07
 2.153601e-07
 2.934303e-08
 -1.749572e-07
 -8.867209e-08
 6.402649e-09
 0.000000e+00
 0.000000e+00
 2.416944e-08
 3.542547e-08
 1.869487e-08
 -2.860330e-08
 -8.051232e-08
 -1.078774e-07
 -1.093913e-07
 -9.903908e-08
 -8.639318e-08
 -7.415230e-08
 -6.151017e-08
 -4.654753e-08
 -2.828998e-08
 -8.619313e-09
 7.870982e-09
 1.675865e-08
 1.637648e-08
 7.461801e-09
 -9.039901e-09
 -3.421372e-08
 -7.407994e-08
 -1.488740e-07
 -3.358919e-07
 -1.421563e-06
 -1.189556e-07
 7.781198e-07
 1.261698e-07
 -5.104583e-08
 -1.195786e-07
 -1.593869e-07
 -2.001247e-07
 -2.671220e-07
 -3.969607e-07
 -4.683855e-07
 -2.802454e-07
 -4.916645e-08
 1.926534e-07
 3.509297e-07
 2.475134e-07
 1.233028e-07
 5.254972e-08
 2.376261e-08
 3.184178e-08
 6.196803e-08
 6.844485e-08
 9.894802e-09
 -5.124587e-08
 -4.619130e-08
 -1.610081e-08
 0.000000e+00
 0.000000e+00
 7.448561e-09
 7.090967e-09
 -6.787546e-09
 -3.296418e-08
 -6.131733e-08
 -8.080728e-08
 -8.848105e-08
 -8.825872e-08
 -8.487101e-08
 -8.051103e-08
 -7.405923e-08
 -6.150203e-08
 -3.908580e-08
 -9.436915e-09
 1.695002e-08
 3.034539e-08
 2.936567e-08
 1.851516e-08
 2.732329e-09
 -1.468509e-08
 -3.142548e-08
 -4.434027e-08
 -4.335032e-08
 -8.386061e-08
 1.736459e-05
 -1.044768e-07
 -8.585102e-08
 -1.107608e-07
 -1.243122e-07
 -1.383080e-07
 -1.623431e-07
 -2.205206e-07
 -3.987838e-07
 -1.507192e-06
 -3.402252e-07
 -4.819358e-07
 2.089122e-07
 9.622986e-07
 2.709998e-07
 8.465109e-08
 2.077216e-08
 7.654735e-10
 2.857201e-09
 1.275913e-08
 1.290753e-08
 -4.644069e-09
 -2.300616e-08
 -2.390477e-08
 -1.257119e-08
 0.000000e+00
 0.000000e+00
 -1.246166e-09
 -6.511227e-09
 -1.809985e-08
 -3.494906e-08
 -5.273744e-08
 -6.683198e-08
 -7.547364e-08
 -8.014883e-08
 -8.375647e-08
 -8.840242e-08
 -9.262101e-08
 -8.750546e-08
 -5.882734e-08
 -6.818644e-09
 4.080299e-08
 5.934984e-08
 5.216075e-08
 3.415192e-08
 1.595902e-08
 4.249838e-09
 8.087153e-09
 5.040077e-08
 2.080754e-07
 8.437665e-07
 -7.088491e-08
 -1.395775e-06
 -3.368752e-07
 -1.778810e-07
 -1.285726e-07
 -1.090496e-07
 -9.751809e-08
 -8.541825e-08
 -6.114055e-08
 -7.816043e-08
 1.740339e-05
 -7.819811e-08
 1.741353e-05
 -5.816284e-08
 -3.177160e-08
 -4.683977e-08
 -4.820965e-08
 -4.380904e-08
 -3.520413e-08
 -2.542658e-08
 -1.912459e-08
 -1.802696e-08
 -1.803262e-08
 -1.449035e-08
 -7.679978e-09
 0.000000e+00
 0.000000e+00
 -5.646295e-09
 -1.317844e-08
 -2.350530e-08
 -3.593291e-08
 -4.843339e-08
 -5.891737e-08
 -6.666485e-08
 -7.298265e-08
 -8.107374e-08
 -9.539286e-08
 -1.189190e-07
 -1.394699e-07
 -1.083640e-07
 9.576244e-10
 1.001415e-07
 1.157030e-07
 8.449085e-08
 4.921834e-08
 2.303642e-08
 9.449974e-09
 1.540926e-08
 5.678091e-08
 1.529692e-07
 2.177834e-07
 -1.666753e-08
 -2.974752e-07
 -2.720515e-07
 -1.652241e-07
 -1.096749e-07
 -7.348806e-08
 -3.311379e-08
 4.165389e-08
 2.359771e-07
 9.354559e-07
 1.910965e-07
 -4.898779e-07
 -3.375008e-07
 -1.493470e-06
 -3.746720e-07
 -1.875456e-07
 -1.223922e-07
 -9.298865e-08
 -7.487006e-08
 -5.962474e-08
 -4.464895e-08
 -3.020236e-08
 -1.777709e-08
 -8.698943e-09
 -3.187416e-09
 0.000000e+00
 0.000000e+00
 -7.989830e-09
 -1.675695e-08
 -2.655382e-08
 -3.682868e-08
 -4.640149e-08
 -5.410121e-08
 -5.960915e-08
 -6.428378e-08
 -7.212902e-08
 -9.159580e-08
 -1.393870e-07
 -2.433926e-07
 -2.658386e-07
 2.314959e-08
 2.705818e-07
 2.149669e-07
 1.147192e-07
 5.414304e-08
 1.823889e-08
 -3.281295e-09
 -1.094249e-08
 3.313778e-09
 4.202619e-08
 6.323909e-08
 3.221544e-09
 -8.849380e-08
 -1.196829e-07
 -1.018515e-07
 -7.351610e-08
 -4.151186e-08
 3.245946e-09
 7.812903e-08
 2.061941e-07
 3.163383e-07
 1.663328e-07
 -6.592627e-08
 -2.853629e-07
 -4.603285e-07
 -3.764719e-07
 -2.377385e-07
 -1.678892e-07
 -1.329237e-07
 -1.124901e-07
 -9.401129e-08
 -6.984840e-08
 -4.031372e-08
 -1.397466e-08
 9.235713e-10
 3.833536e-09
 0.000000e+00
 0.000000e+00
 -9.461803e-09
 -1.915799e-08
 -2.900524e-08
 -3.842234e-08
 -4.638733e-08
 -5.175475e-08
 -5.380758e-08
 -5.309847e-08
 -5.285217e-08
 -6.188455e-08
 -1.038974e-07
 -2.597736e-07
 -1.318796e-06
 4.457369e-09
 9.160438e-07
 2.733110e-07
 1.014009e-07
 3.614518e-08
 6.462873e-10
 -2.821353e-08
 -5.884926e-08
 -8.323708e-08
 -6.176375e-08
 1.816354e-08
 6.546540e-08
 3.178656e-08
 -1.802233e-08
 -4.106770e-08
 -3.931889e-08
 -2.111352e-08
 1.135733e-08
 5.842377e-08
 1.102890e-07
 1.254156e-07
 5.580975e-08
 -6.694363e-08
 -1.911909e-07
 -2.705134e-07
 -2.665996e-07
 -2.205544e-07
 -1.812626e-07
 -1.594282e-07
 -1.487645e-07
 -1.354826e-07
 -1.021592e-07
 -4.712584e-08
 2.915808e-09
 2.353976e-08
 1.772132e-08
 0.000000e+00
 0.000000e+00
 -1.064247e-08
 -2.131796e-08
 -3.180581e-08
 -4.144141e-08
 -4.903510e-08
 -5.292066e-08
 -5.118219e-08
 -4.226768e-08
 -2.620421e-08
 -5.631101e-09
 1.593488e-08
 4.311336e-08
 1.904107e-08
 1.747634e-05
 1.174673e-08
 3.269914e-08
 8.730293e-09
 -5.414785e-09
 -2.188642e-08
 -4.965768e-08
 -1.051128e-07
 -2.173364e-07
 -2.521700e-07
 1.637771e-08
 2.369193e-07
 1.578212e-07
 4.819155e-08
 -4.832552e-09
 -2.024542e-08
 -1.441085e-08
 3.782223e-09
 2.758665e-08
 4.580528e-08
 4.036998e-08
 -1.248213e-09
 -6.881338e-08
 -1.381109e-07
 -1.850271e-07
 -1.977368e-07
 -1.877928e-07
 -1.754153e-07
 -1.736476e-07
 -1.863750e-07
 -1.996040e-07
 -1.627818e-07
 -4.830028e-08
 5.551747e-08
 7.417965e-08
 4.245750e-08
 0.000000e+00
 0.000000e+00
 -1.174601e-08
 -2.358838e-08
 -3.536753e-08
 -4.641888e-08
 -5.533959e-08
 -5.975005e-08
 -5.599023e-08
 -3.909601e-08
 -4.380061e-09
 5.051880e-08
 1.350479e-07
 3.153056e-07
 9.545470e-07
 3.334765e-08
 -1.299374e-06
 -2.456822e-07
 -8.984445e-08
 -4.453114e-08
 -3.433005e-08
 -4.610401e-08
 -9.535362e-08
 -2.599131e-07
 -1.329030e-06
 -1.807048e-08
 8.801794e-07
 2.271321e-07
 5.268244e-08
 -4.614746e-09
 -2.104698e-08
 -1.967535e-08
 -1.020027e-08
 6.781153e-10
 5.529480e-09
 -3.512099e-09
 -3.007080e-08
 -6.910633e-08
 -1.091792e-07
 -1.388129e-07
 -1.528763e-07
 -1.556725e-07
 -1.576016e-07
 -1.714335e-07
 -2.147151e-07
 -3.142310e-07
 -3.309594e-07
 -3.470477e-08
 2.205770e-07
 1.711516e-07
 7.171370e-08
 0.000000e+00
 0.000000e+00
 -1.271041e-08
 -2.583728e-08
 -3.953369e-08
 -5.336703e-08
 -6.594069e-08
 -7.448376e-08
 -7.390618e-08
 -5.439471e-08
 -2.496883e-09
 8.380546e-08
 1.877735e-07
 3.015393e-07
 3.463727e-07
 8.034673e-08
 -2.243114e-07
 -2.106030e-07
 -1.079879e-07
 -5.568640e-08
 -2.837597e-08
 -1.225196e-08
 -3.318602e-10
 1.802083e-08
 -1.251876e-08
 1.743970e-05
 -2.921027e-08
 -1.072604e-08
 -3.308609e-08
 -3.910513e-08
 -3.794608e-08
 -3.266468e-08
 -2.580656e-08
 -2.043026e-08
 -2.016102e-08
 -2.817789e-08
 -4.524112e-08
 -6.836366e-08
 -9.181789e-08
 -1.099886e-07