<VTKFile type="UnstructuredGrid"  version="0.1"   >
<UnstructuredGrid>  
<Piece  NumberOfPoints="     2601"  NumberOfCells="     5000">  
<Points>  
<DataArray  type="Float64"  NumberOfComponents="3"  format="ascii">  
 0.000000 0.000000 0.000000 
 0.020000 0.000000 0.000000 
 0.040000 0.000000 0.000000 
 0.060000 0.000000 0.000000 
 0.080000 0.000000 0.000000 
 0.100000 0.000000 0.000000 
 0.120000 0.000000 0.000000 
 0.140000 0.000000 0.000000 
 0.160000 0.000000 0.000000 
 0.180000 0.000000 0.000000 
 0.200000 0.000000 0.000000 
 0.220000 0.000000 0.000000 
 0.240000 0.000000 0.000000 
 0.260000 0.000000 0.000000 
 0.280000 0.000000 0.000000 
 0.300000 0.000000 0.000000 
 0.320000 0.000000 0.000000 
 0.340000 0.000000 0.000000 
 0.360000 0.000000 0.000000 
 0.380000 0.000000 0.000000 
 0.400000 0.000000 0.000000 
 0.420000 0.000000 0.000000 
 0.440000 0.000000 0.000000 
 0.460000 0.000000 0.000000 
 0.480000 0.000000 0.000000 
 0.500000 0.000000 0.000000 
 0.520000 0.000000 0.000000 
 0.540000 0.000000 0.000000 
 0.560000 0.000000 0.000000 
 0.580000 0.000000 0.000000 
 0.600000 0.000000 0.000000 
 0.620000 0.000000 0.000000 
 0.640000 0.000000 0.000000 
 0.660000 0.000000 0.000000 
 0.680000 0.000000 0.000000 
 0.700000 0.000000 0.000000 
 0.720000 0.000000 0.000000 
 0.740000 0.000000 0.000000 
 0.760000 0.000000 0.000000 
 0.780000 0.000000 0.000000 
 0.800000 0.000000 0.000000 
 0.820000 0.000000 0.000000 
 0.840000 0.000000 0.000000 
 0.860000 0.000000 0.000000 
 0.880000 0.000000 0.000000 
 0.900000 0.000000 0.000000 
 0.920000 0.000000 0.000000 
 0.940000 0.000000 0.000000 
 0.960000 0.000000 0.000000 
 0.980000 0.000000 0.000000 
 1.000000 0.000000 0.000000 
 0.000000 0.020000 0.000000 
 0.020000 0.020000 0.000000 
 0.040000 0.020000 0.000000 
 0.060000 0.020000 0.000000 
 0.080000 0.020000 0.000000 
 0.100000 0.020000 0.000000 
 0.120000 0.020000 0.000000 
 0.140000 0.020000 0.000000 
 0.160000 0.020000 0.000000 
 0.180000 0.020000 0.000000 
 0.200000 0.020000 0.000000 
 0.220000 0.020000 0.000000 
 0.240000 0.020000 0.000000 
 0.260000 0.020000 0.000000 
 0.280000 0.020000 0.000000 
 0.300000 0.020000 0.000000 
 0.320000 0.020000 0.000000 
 0.340000 0.020000 0.000000 
 0.360000 0.020000 0.000000 
 0.380000 0.020000 0.000000 
 0.400000 0.020000 0.000000 
 0.420000 0.020000 0.000000 
 0.440000 0.020000 0.000000 
 0.460000 0.020000 0.000000 
 0.480000 0.020000 0.000000 
 0.500000 0.020000 0.000000 
 0.520000 0.020000 0.000000 
 0.540000 0.020000 0.000000 
 0.560000 0.020000 0.000000 
 0.580000 0.020000 0.000000 
 0.600000 0.020000 0.000000 
 0.620000 0.020000 0.000000 
 0.640000 0.020000 0.000000 
 0.660000 0.020000 0.000000 
 0.680000 0.020000 0.000000 
 0.700000 0.020000 0.000000 
 0.720000 0.020000 0.000000 
 0.740000 0.020000 0.000000 
 0.760000 0.020000 0.000000 
 0.780000 0.020000 0.000000 
 0.800000 0.020000 0.000000 
 0.820000 0.020000 0.000000 
 0.840000 0.020000 0.000000 
 0.860000 0.020000 0.000000 
 0.880000 0.020000 0.000000 
 0.900000 0.020000 0.000000 
 0.920000 0.020000 0.000000 
 0.940000 0.020000 0.000000 
 0.960000 0.020000 0.000000 
 0.980000 0.020000 0.000000 
 1.000000 0.020000 0.000000 
 0.000000 0.040000 0.000000 
 0.020000 0.040000 0.000000 
 0.040000 0.040000 0.000000 
 0.060000 0.040000 0.000000 
 0.080000 0.040000 0.000000 
 0.100000 0.040000 0.000000 
 0.120000 0.040000 0.000000 
 0.140000 0.040000 0.000000 
 0.160000 0.040000 0.000000 
 0.180000 0.040000 0.000000 
 0.200000 0.040000 0.000000 
 0.220000 0.040000 0.000000 
 0.240000 0.040000 0.000000 
 0.260000 0.040000 0.000000 
 0.280000 0.040000 0.000000 
 0.300000 0.040000 0.000000 
 0.320000 0.040000 0.000000 
 0.340000 0.040000 0.000000 
 0.360000 0.040000 0.000000 
 0.380000 0.040000 0.000000 
 0.400000 0.040000 0.000000 
 0.420000 0.040000 0.000000 
 0.440000 0.040000 0.000000 
 0.460000 0.040000 0.000000 
 0.480000 0.040000 0.000000 
 0.500000 0.040000 0.000000 
 0.520000 0.040000 0.000000 
 0.540000 0.040000 0.000000 
 0.560000 0.040000 0.000000 
 0.580000 0.040000 0.000000 
 0.600000 0.040000 0.000000 
 0.620000 0.040000 0.000000 
 0.640000 0.040000 0.000000 
 0.660000 0.040000 0.000000 
 0.680000 0.040000 0.000000 
 0.700000 0.040000 0.000000 
 0.720000 0.040000 0.000000 
 0.740000 0.040000 0.000000 
 0.760000 0.040000 0.000000 
 0.780000 0.040000 0.000000 
 0.800000 0.040000 0.000000 
 0.820000 0.040000 0.000000 
 0.840000 0.040000 0.000000 
 0.860000 0.040000 0.000000 
 0.880000 0.040000 0.000000 
 0.900000 0.040000 0.000000 
 0.920000 0.040000 0.000000 
 0.940000 0.040000 0.000000 
 0.960000 0.040000 0.000000 
 0.980000 0.040000 0.000000 
 1.000000 0.040000 0.000000 
 0.000000 0.060000 0.000000 
 0.020000 0.060000 0.000000 
 0.040000 0.060000 0.000000 
 0.060000 0.060000 0.000000 
 0.080000 0.060000 0.000000 
 0.100000 0.060000 0.000000 
 0.120000 0.060000 0.000000 
 0.140000 0.060000 0.000000 
 0.160000 0.060000 0.000000 
 0.180000 0.060000 0.000000 
 0.200000 0.060000 0.000000 
 0.220000 0.060000 0.000000 
 0.240000 0.060000 0.000000 
 0.260000 0.060000 0.000000 
 0.280000 0.060000 0.000000 
 0.300000 0.060000 0.000000 
 0.320000 0.060000 0.000000 
 0.340000 0.060000 0.000000 
 0.360000 0.060000 0.000000 
 0.380000 0.060000 0.000000 
 0.400000 0.060000 0.000000 
 0.420000 0.060000 0.000000 
 0.440000 0.060000 0.000000 
 0.460000 0.060000 0.000000 
 0.480000 0.060000 0.000000 
 0.500000 0.060000 0.000000 
 0.520000 0.060000 0.000000 
 0.540000 0.060000 0.000000 
 0.560000 0.060000 0.000000 
 0.580000 0.060000 0.000000 
 0.600000 0.060000 0.000000 
 0.620000 0.060000 0.000000 
 0.640000 0.060000 0.000000 
 0.660000 0.060000 0.000000 
 0.680000 0.060000 0.000000 
 0.700000 0.060000 0.000000 
 0.720000 0.060000 0.000000 
 0.740000 0.060000 0.000000 
 0.760000 0.060000 0.000000 
 0.780000 0.060000 0.000000 
 0.800000 0.060000 0.000000 
 0.820000 0.060000 0.000000 
 0.840000 0.060000 0.000000 
 0.860000 0.060000 0.000000 
 0.880000 0.060000 0.000000 
 0.900000 0.060000 0.000000 
 0.920000 0.060000 0.000000 
 0.940000 0.060000 0.000000 
 0.960000 0.060000 0.000000 
 0.980000 0.060000 0.000000 
 1.000000 0.060000 0.000000 
 0.000000 0.080000 0.000000 
 0.020000 0.080000 0.000000 
 0.040000 0.080000 0.000000 
 0.060000 0.080000 0.000000 
 0.080000 0.080000 0.000000 
 0.100000 0.080000 0.000000 
 0.120000 0.080000 0.000000 
 0.140000 0.080000 0.000000 
 0.160000 0.080000 0.000000 
 0.180000 0.080000 0.000000 
 0.200000 0.080000 0.000000 
 0.220000 0.080000 0.000000 
 0.240000 0.080000 0.000000 
 0.260000 0.080000 0.000000 
 0.280000 0.080000 0.000000 
 0.300000 0.080000 0.000000 
 0.320000 0.080000 0.000000 
 0.340000 0.080000 0.000000 
 0.360000 0.080000 0.000000 
 0.380000 0.080000 0.000000 
 0.400000 0.080000 0.000000 
 0.420000 0.080000 0.000000 
 0.440000 0.080000 0.000000 
 0.460000 0.080000 0.000000 
 0.480000 0.080000 0.000000 
 0.500000 0.080000 0.000000 
 0.520000 0.080000 0.000000 
 0.540000 0.080000 0.000000 
 0.560000 0.080000 0.000000 
 0.580000 0.080000 0.000000 
 0.600000 0.080000 0.000000 
 0.620000 0.080000 0.000000 
 0.640000 0.080000 0.000000 
 0.660000 0.080000 0.000000 
 0.680000 0.080000 0.000000 
 0.700000 0.080000 0.000000 
 0.720000 0.080000 0.000000 
 0.740000 0.080000 0.000000 
 0.760000 0.080000 0.000000 
 0.780000 0.080000 0.000000 
 0.800000 0.080000 0.000000 
 0.820000 0.080000 0.000000 
 0.840000 0.080000 0.000000 
 0.860000 0.080000 0.000000 
 0.880000 0.080000 0.000000 
 0.900000 0.080000 0.000000 
 0.920000 0.080000 0.000000 
 0.940000 0.080000 0.000000 
 0.960000 0.080000 0.000000 
 0.980000 0.080000 0.000000 
 1.000000 0.080000 0.000000 
 0.000000 0.100000 0.000000 
 0.020000 0.100000 0.000000 
 0.040000 0.100000 0.000000 
 0.060000 0.100000 0.000000 
 0.080000 0.100000 0.000000 
 0.100000 0.100000 0.000000 
 0.120000 0.100000 0.000000 
 0.140000 0.100000 0.000000 
 0.160000 0.100000 0.000000 
 0.180000 0.100000 0.000000 
 0.200000 0.100000 0.000000 
 0.220000 0.100000 0.000000 
 0.240000 0.100000 0.000000 
 0.260000 0.100000 0.000000 
 0.280000 0.100000 0.000000 
 0.300000 0.100000 0.000000 
 0.320000 0.100000 0.000000 
 0.340000 0.100000 0.000000 
 0.360000 0.100000 0.000000 
 0.380000 0.100000 0.000000 
 0.400000 0.100000 0.000000 
 0.420000 0.100000 0.000000 
 0.440000 0.100000 0.000000 
 0.460000 0.100000 0.000000 
 0.480000 0.100000 0.000000 
 0.500000 0.100000 0.000000 
 0.520000 0.100000 0.000000 
 0.540000 0.100000 0.000000 
 0.560000 0.100000 0.000000 
 0.580000 0.100000 0.000000 
 0.600000 0.100000 0.000000 
 0.620000 0.100000 0.000000 
 0.640000 0.100000 0.000000 
 0.660000 0.100000 0.000000 
 0.680000 0.100000 0.000000 
 0.700000 0.100000 0.000000 
 0.720000 0.100000 0.000000 
 0.740000 0.100000 0.000000 
 0.760000 0.100000 0.000000 
 0.780000 0.100000 0.000000 
 0.800000 0.100000 0.000000 
 0.820000 0.100000 0.000000 
 0.840000 0.100000 0.000000 
 0.860000 0.100000 0.000000 
 0.880000 0.100000 0.000000 
 0.900000 0.100000 0.000000 
 0.920000 0.100000 0.000000 
 0.940000 0.100000 0.000000 
 0.960000 0.100000 0.000000 
 0.980000 0.100000 0.000000 
 1.000000 0.100000 0.000000 
 0.000000 0.120000 0.000000 
 0.020000 0.120000 0.000000 
 0.040000 0.120000 0.000000 
 0.060000 0.120000 0.000000 
 0.080000 0.120000 0.000000 
 0.100000 0.120000 0.000000 
 0.120000 0.120000 0.000000 
 0.140000 0.120000 0.000000 
 0.160000 0.120000 0.000000 
 0.180000 0.120000 0.000000 
 0.200000 0.120000 0.000000 
 0.220000 0.120000 0.000000 
 0.240000 0.120000 0.000000 
 0.260000 0.120000 0.000000 
 0.280000 0.120000 0.000000 
 0.300000 0.120000 0.000000 
 0.320000 0.120000 0.000000 
 0.340000 0.120000 0.000000 
 0.360000 0.120000 0.000000 
 0.380000 0.120000 0.000000 
 0.400000 0.120000 0.000000 
 0.420000 0.120000 0.000000 
 0.440000 0.120000 0.000000 
 0.460000 0.120000 0.000000 
 0.480000 0.120000 0.000000 
 0.500000 0.120000 0.000000 
 0.520000 0.120000 0.000000 
 0.540000 0.120000 0.000000 
 0.560000 0.120000 0.000000 
 0.580000 0.120000 0.000000 
 0.600000 0.120000 0.000000 
[...]
<PointData  Scalars="U"> 
<DataArray  type="Float64"  Name="U"  format="ascii"> 
 0.000000e+00
 0.000000e+00
 0.000000e+00
 0.000000e+00
 0.000000e+00
 0.000000e+00
 0.000000e+00
 0.000000e+00
 0.000000e+00
 0.000000e+00
 0.000000e+00
 0.000000e+00
 0.000000e+00
 0.000000e+00
 0.000000e+00
 0.000000e+00
 0.000000e+00
 0.000000e+00
 0.000000e+00
 0.000000e+00
 0.000000e+00
 0.000000e+00
 0.000000e+00
 0.000000e+00
 0.000000e+00
 0.000000e+00
 0.000000e+00
 0.000000e+00
 0.000000e+00
 0.000000e+00
 0.000000e+00
 0.000000e+00
 0.000000e+00
 0.000000e+00
 0.000000e+00
 0.000000e+00
 0.000000e+00
 0.000000e+00
 0.000000e+00
 0.000000e+00
 0.000000e+00
 0.000000e+00
 0.000000e+00
 0.000000e+00
 0.000000e+00
 0.000000e+00
 0.000000e+00
 0.000000e+00
 0.000000e+00
 0.000000e+00
 0.000000e+00
 0.000000e+00
 -3.285399e-08
 -8.109566e-08
 -1.857087e-07
 -2.285869e-07
 1.046636e-08
 1.844036e-07
 4.615039e-08
 -2.487180e-07
 -1.427469e-06
 -1.208001e-07
 7.851977e-07
 2.386169e-07
 1.386454e-07
 -1.912474e-07
 -1.476280e-06
 -5.387621e-07
 -9.974452e-07
 -7.582246e-07
 -9.242802e-07
 -3.822336e-06
 -4.883908e-06
 -4.611087e-06
 1.187916e-05
 -1.812872e-06
 -3.128940e-07
 1.633481e-05
 -2.077693e-06
 -3.921179e-06
 -3.955832e-06
 -1.342821e-06
 -6.781143e-07
 -4.119599e-07
 -2.804719e-07
 -2.050139e-07
 -1.572168e-07
 -1.250284e-07
 -1.025944e-07
 -8.673123e-08
 -7.541541e-08
 -6.690913e-08
 -5.919403e-08
 -4.998428e-08
 -3.778470e-08
 -2.345277e-08
 -1.018163e-08
 -1.062925e-09
 3.118818e-09
 3.594664e-09
 1.995613e-09
 0.000000e+00
 0.000000e+00
 -5.632566e-08
 -1.073945e-07
 -2.617586e-07
 -1.321015e-06
 8.384968e-09
 8.402027e-07
 9.240922e-08
 -2.957396e-08
 -1.089867e-06
 1.731774e-05
 -5.280204e-07
 2.702572e-08
 6.635502e-07
 -9.779678e-08
 -4.134386e-07
 1.681265e-05
 -1.050855e-06
 1.596314e-05
 -1.945964e-06
 -2.509313e-06
 -2.897417e-06
 -2.345492e-06
 -2.923369e-06
 1.398475e-05
 -1.371468e-06
 -2.011161e-06
 -3.492053e-06
 -2.729012e-06
 -2.381374e-06
 -1.639457e-06
 -1.048092e-06
 -7.113401e-07
 -5.114005e-07
 -3.846015e-07
 -2.997158e-07
 -2.407026e-07
 -1.987972e-07
 -1.689570e-07
 -1.479603e-07
 -1.329487e-07
 -1.199896e-07
 -1.033998e-07
 -7.818187e-08
 -4.581855e-08
 -1.573401e-08
 3.184842e-09
 9.987385e-09
 9.115011e-09
 4.988137e-09
 0.000000e+00
 0.000000e+00
 -1.074117e-07
 -5.477670e-08
 -6.089961e-09
 -5.654412e-08
 1.758171e-05
 1.563083e-07
 -9.336298e-07
 3.969266e-07
 1.787134e-06
 1.758391e-05
 -1.504224e-06
 1.690157e-05
 -4.819642e-07
 -3.549083e-07
 2.145063e-07
 -6.628578e-07
 -1.657364e-06
 -2.874530e-06
 -3.139799e-06
 -1.523192e-06
 -2.149300e-06
 -2.106341e-06
 -1.602949e-06
 -2.598945e-06
 -3.775134e-06
 -2.561248e-06
 -2.197654e-06
 -1.964684e-06
 -1.811912e-06
 -1.520617e-06
 -1.171664e-06
 -8.841425e-07
 -6.741725e-07
 -5.245502e-07
 -4.174477e-07
 -3.398494e-07
 -2.832290e-07
 -2.424040e-07
 -2.143305e-07
 -1.965540e-07
 -1.843830e-07
 -1.666418e-07
 -1.274443e-07
 -6.576899e-08
 -8.409864e-09
 2.050530e-08
 2.438652e-08
 1.748990e-08
 8.558918e-09
 0.000000e+00
 0.000000e+00
 -4.001963e-07
 4.355560e-09
 4.889089e-07
 5.603616e-09
 2.594186e-07
 -1.942090e-07
 2.563271e-07
 1.793643e-05
 1.138214e-06
 6.803330e-08
 -1.016936e-06
 -9.260221e-07
 -2.046491e-06
 -9.640335e-07
 -8.179678e-07
 -7.973424e-07
 -9.313782e-07
 -1.380591e-06
 1.562938e-05
 -2.011999e-06
 -2.008193e-06
 -1.978618e-06
 -1.992406e-06
 -2.402037e-06
 -3.843488e-06
 -3.573626e-06
 -1.287644e-06
 -9.167757e-07
 -1.511186e-06
 -1.441548e-06
 -1.213366e-06
 -9.760593e-07
 -7.770489e-07
 -6.228797e-07
 -5.064337e-07
 -4.185742e-07
 -3.522280e-07
 -3.032311e-07
 -2.701046e-07
 -2.533824e-07
 -2.528465e-07
 -2.538023e-07
 -2.057009e-07
 -8.069062e-08
 3.369026e-08
 6.435683e-08
 4.808893e-08
 2.678771e-08
 1.134087e-08
 0.000000e+00
 0.000000e+00
 -2.665953e-06
 -2.064456e-07
 1.889938e-06
 8.540504e-07
 1.779651e-05
 1.427560e-07
 9.119865e-07
 2.149002e-07
 -1.062320e-06
 -3.485817e-07
 -6.196667e-07
 -8.814338e-07
 -1.074750e-06
 -1.141299e-06
 -2.162467e-06
 -1.029609e-06
 -2.409387e-07
 -2.556188e-07
 -1.345149e-06
 -2.915522e-06
 -2.002308e-06
 -1.883231e-06
 -1.857125e-06
 -1.896692e-06
 -1.979412e-06
 1.544129e-05
 1.548406e-05
 -1.852263e-06
 -1.680237e-06
 -1.484270e-06
 -1.249394e-06
 -1.023627e-06
 -8.332177e-07
 -6.833416e-07
 -5.672580e-07
 -4.762938e-07
 -4.043297e-07
 -3.485563e-07
 -3.095610e-07
 -2.925577e-07
 -3.111218e-07
 -3.904182e-07
 -3.906675e-07
 -8.077100e-08
 1.869119e-07
 1.511668e-07
 7.044299e-08
 2.872047e-08
 9.805148e-09
 0.000000e+00
 0.000000e+00
 -2.767431e-07
 3.354346e-05
 -2.807194e-08
 1.478239e-06
 1.290971e-08
 -1.269243e-06
 1.293975e-08
 9.239043e-08
 -2.901002e-07
 -5.343123e-07
 -7.097484e-07
 -8.408984e-07
 -8.434858e-07
 -7.798693e-07
 -8.602150e-07
 1.635492e-05
 -2.265983e-06
 -1.065408e-06
 -5.827176e-07
 -1.613741e-06
 -1.789462e-06
 -1.722836e-06
 -1.631011e-06
 -1.425642e-06
 -6.433983e-07
 -9.177668e-07
 -3.119456e-06
 -3.304922e-06
 -1.955498e-06
 -1.561950e-06
 -1.272837e-06
 -1.031931e-06
 -8.468811e-07
 -7.098887e-07
 -6.034914e-07
 -5.155752e-07
 -4.407747e-07
 -3.778026e-07
 -3.283217e-07
 -2.986424e-07
 -3.090504e-07
 -4.371180e-07
 -1.469928e-06
 -1.211331e-07
 8.155021e-07
 1.973528e-07
 4.979627e-08
 9.272639e-09
 -5.069023e-11
 0.000000e+00
 0.000000e+00
 1.589193e-06
 -1.952072e-07
 1.454850e-05
 -1.854390e-06
 -6.081573e-07
 -9.736317e-07
 -2.650955e-07
 4.946164e-07
 -2.995206e-07
 -6.145554e-07
 -8.527972e-07
 -9.596996e-07
 -6.932839e-07
 -3.320791e-07
 2.080953e-07
 -8.507076e-07
 -2.346825e-06
 1.600926e-05
 -1.495012e-06
 -1.581908e-06
 -1.620572e-06
 -1.570747e-06
 -1.478911e-06
 -1.331496e-06
 -1.186997e-06
 -1.375127e-06
 -1.886209e-06
 -2.103672e-06
 -1.892506e-06
 -1.577953e-06
 -1.254633e-06
 -9.792492e-07
 -8.110001e-07
 -7.072546e-07
 -6.224231e-07
 -5.423587e-07
 -4.658185e-07
 -3.941819e-07
 -3.290043e-07
 -2.710969e-07
 -2.190546e-07
 -1.631870e-07
 -1.578488e-07
 1.732956e-05
 -1.051614e-07
 -5.512428e-08
 -5.050136e-08
 -3.510582e-08
 -1.773490e-08
 0.000000e+00
 0.000000e+00
 4.759244e-07
 7.245138e-07
 -6.979269e-07
 -2.007079e-06
 1.664592e-05
 -6.883045e-07
 1.684546e-05
 -6.209644e-07
 -6.365468e-07
 -7.411826e-07
 -9.434607e-07
 -2.029694e-06
 -6.972691e-07
 2.815849e-07
 -3.067202e-07
 -6.291798e-07
 -4.292902e-07
 -1.449966e-06
 -2.774576e-06
 -1.718031e-06
 -1.535316e-06
 -1.447101e-06
 -1.381476e-06
 -1.323726e-06
 -1.312935e-06
 -1.420974e-06
 -1.612310e-06
 -1.738252e-06
 -1.765279e-06
 -1.635396e-06
 -1.187513e-06
 -7.931650e-07
 -7.148388e-07
 -6.921223e-07
 -6.381436e-07
 -5.658834e-07
 -4.859642e-07
 -4.039898e-07
 -3.221169e-07
 -2.367813e-07
 -1.285182e-07
 7.885848e-08
 7.510741e-07
 -1.343113e-07
 -1.431709e-06
 -3.447002e-07
 -1.573674e-07
 -8.074772e-08
 -3.564922e-08
 0.000000e+00
 0.000000e+00
 1.052279e-07
 3.795421e-08
 -2.356262e-07
 9.852131e-08
 -6.148074e-07
 -1.178657e-06
 -9.677480e-07
 -2.097973e-06
 -9.758227e-07
 -7.963960e-07
 -7.316769e-07
 -7.438267e-07
 1.672757e-05
 -7.211387e-07
 -7.151859e-07
 -8.117356e-07
 -9.691995e-07
 -1.351944e-06
 -1.668757e-06
 -1.573208e-06
 -1.382912e-06
 -1.305998e-06
 -1.285474e-06
 -1.280429e-06
 -1.297799e-06
 -1.353666e-06
 -1.432312e-06
 -1.502751e-06
 -1.617960e-06
 -2.584750e-06
 -1.147514e-06
 -1.188048e-07
 -6.485311e-07
 -7.121936e-07
 -6.707690e-07
 -5.962731e-07
 -5.076995e-07
 -4.129056e-07
 -3.165985e-07
 -2.186586e-07
 -1.094060e-07
 2.811299e-08
 1.135514e-07
 -1.073322e-07
 -3.697881e-07
 -3.187771e-07
 -1.833068e-07
 -1.013159e-07
 -4.565804e-08
 0.000000e+00
 0.000000e+00
 -1.100731e-07
 -2.351781e-07
 -3.445900e-07
 -4.039482e-07
 -5.871360e-07
 -7.780874e-07
 -9.482580e-07
 -1.083233e-06
 -9.623875e-07
 -7.645249e-07
 -5.326961e-07
 1.340491e-07
 -7.707559e-07
 -2.102637e-06
 -1.080010e-06
 -1.008402e-06
 -1.130822e-06
 -1.401275e-06
 -1.580732e-06
 -1.350689e-06
 -1.091976e-06
 -1.116421e-06
 -1.183558e-06
 -1.216380e-06
 -1.237098e-06
 -1.258397e-06
 -1.273051e-06
 -1.261497e-06
 -1.204302e-06
 -1.162401e-06
 1.638184e-05
 -9.890722e-07
 -8.757911e-07
 -8.097498e-07
 -7.304090e-07
 -6.395478e-07
 -5.353457e-07
 -4.226148e-07
 -3.110745e-07
 -2.095623e-07
 -1.220706e-07
 -5.609701e-08
 -4.585312e-08
 -1.214290e-07
 -2.055804e-07
 -2.083924e-07
 -1.561349e-07
 -9.791435e-08
 -4.665953e-08
 0.000000e+00
 0.000000e+00
 -3.045005e-07
 -5.016142e-07
 -5.953695e-07
 -6.461742e-07
 -7.156459e-07
 -7.997887e-07
 -8.748563e-07
 -9.063753e-07
 -8.529234e-07
 -7.409891e-07
 -6.002003e-07
 -5.232981e-07
 -7.657342e-07
 -1.066499e-06
 -1.079115e-06
 -1.046127e-06
 -1.129760e-06
 -1.372100e-06
 -2.515387e-06
 -1.239623e-06
 -3.379121e-07
 -9.689547e-07
 -1.120185e-06
 -1.161937e-06
 -1.172053e-06
 -1.167403e-06
 -1.140898e-06
 -1.064795e-06
 -8.591629e-07
 -1.629843e-07
 -1.009268e-06
 -2.263613e-06
 -1.137327e-06
 -9.158228e-07
 -8.015036e-07
 -6.976107e-07
 -5.724287e-07
 -4.309614e-07
 -2.944205e-07
 -1.861788e-07
 -1.188917e-07
 -8.885950e-08
 -9.251293e-08
 -1.230336e-07
 -1.526334e-07
 -1.534934e-07
 -1.261770e-07
 -8.594868e-08
 -4.290911e-08
 0.000000e+00
 0.000000e+00
 -6.324560e-07
 -8.782583e-07
 -8.919406e-07
 -8.527287e-07
 -8.290473e-07
 -8.295692e-07
 -8.386971e-07
 -8.337593e-07
 -7.990747e-07
 -7.416449e-07
 -6.884498e-07
 -6.901532e-07
 -7.859057e-07
 -9.034422e-07
 -9.562564e-07
 -9.722521e-07
 -9.973444e-07
 -1.027687e-06
 -1.103326e-06
 1.632169e-05
 -1.153903e-06
 -1.128332e-06
 -1.138254e-06
 -1.131755e-06
 -1.118343e-06
 -1.095411e-06
 -1.052526e-06
 -9.715568e-07
 -8.335698e-07
 -7.251997e-07
 -9.128618e-07
 -1.144891e-06
 -1.076550e-06
 -9.423856e-07
 -8.698402e-07
 -7.836578e-07
 -6.280686e-07
 -4.348086e-07
 -2.476484e-07
 -1.179728e-07
 -7.939284e-08
 -8.819545e-08
 -1.070849e-07
 -1.252127e-07
 -1.350020e-07
 -1.291960e-07
 -1.075549e-07
 -7.551030e-08
 -3.858119e-08
 0.000000e+00
 0.000000e+00
 -1.488449e-06
 -1.462675e-06
 -1.222103e-06
 -1.034511e-06
 -9.147646e-07
 -8.496393e-07
 -8.174276e-07
 -7.956894e-07
 -7.706317e-07
 -7.426032e-07
 -7.246751e-07
 -7.354110e-07
 -7.801966e-07
 -8.348018e-07
 -8.699466e-07
 -8.786758e-07
 -8.526052e-07
 -7.207695e-07
 -1.151646e-07
 -1.054501e-06
 -2.392285e-06
 -1.334295e-06
 -1.167961e-06
 -1.106961e-06
 -1.072911e-06
 -1.042039e-06
 -1.001118e-06
 -9.403538e-07
 -8.649743e-07
 -8.196878e-07
 -8.541743e-07
 -9.101502e-07
 -9.110131e-07
 -8.989553e-07
 -9.531928e-07
 -9.614566e-07
 -7.181259e-07
 -4.352586e-07
 -1.434487e-07
 6.203328e-08
 2.051318e-09
 -8.281692e-08
 -1.219392e-07
 -1.355466e-07
 -1.344994e-07
 -1.218001e-07
 -9.920918e-08
 -6.948593e-08
 -3.562789e-08
 0.000000e+00
 0.000000e+00
 -3.565461e-06
 -2.081685e-06
 -1.481668e-06
 -1.146207e-06
 -9.443495e-07
 -8.365999e-07
 -7.872470e-07
 -7.635329e-07
 -7.473638e-07
 -7.347728e-07
 -7.302778e-07
 -7.399645e-07
 -7.636284e-07
 -7.913842e-07
 -8.103669e-07
 -8.114490e-07
 -7.845361e-07
 -7.154120e-07
 -6.867099e-07
 -9.539940e-07
 -1.253741e-06
 -1.232640e-06
 -1.121805e-06
 -1.061230e-06
 -1.025398e-06
 -9.988655e-07
 -9.712902e-07
 -9.316880e-07
 -8.723412e-07
 -8.072311e-07
 -7.686654e-07
 -7.607032e-07
 -7.618006e-07
 -7.824564e-07
 -9.147235e-07
 -1.975454e-06
 -7.614473e-07
 -8.570061e-07
 -1.211184e-07
 6.754491e-07
 2.450959e-08
 -1.255869e-07
 -1.596893e-07
 -1.592382e-07
 -1.455988e-07
 -1.245505e-07
 -9.802598e-08
 -6.745927e-08
 -3.432995e-08
 0.000000e+00
 0.000000e+00
 -3.782527e-06
 -2.102564e-06
 -1.524477e-06
 -1.135722e-06
 -8.777879e-07
 -7.656803e-07
 -7.343540e-07
 -7.262738e-07
 -7.219479e-07
 -7.191689e-07
 -7.205464e-07
 -7.285370e-07
 -7.424559e-07
 -7.578137e-07
 -7.686413e-07
 -7.703637e-07
 -7.620171e-07
 -7.549800e-07
 -7.904709e-07
 -9.037811e-07
 -1.020362e-06
 -1.051783e-06
 -1.025685e-06
 -9.930026e-07
 -9.693779e-07
 -9.564113e-07
 -9.533490e-07
 -9.469180e-07
 -8.907056e-07
 -7.614677e-07
 -6.461199e-07
 -6.090885e-07
 -6.039380e-07
 -5.853750e-07
 -5.375668e-07
 -5.206712e-07
 1.699967e-05
 -4.412493e-07
 1.709141e-05
 -3.401641e-07
 -2.754018e-07
 -2.549074e-07
 -2.248326e-07
 -1.941266e-07
 -1.636470e-07
 -1.327620e-07
 -1.009067e-07
 -6.796881e-08
 -3.419891e-08
 0.000000e+00
 0.000000e+00
 -1.283345e-06
 -1.596713e-06
 -1.445869e-06
 -1.001638e-06
 -6.421246e-07
 -6.198052e-07
 -6.656968e-07
 -6.875498e-07
 -6.956304e-07
 -6.993556e-07
 -7.036146e-07
 -7.104417e-07
 -7.195854e-07
 -7.290692e-07
 -7.364914e-07
 -7.407794e-07
 -7.443328e-07
 -7.558502e-07
 -7.890207e-07
 -8.461945e-07
 -9.020638e-07
 -9.289409e-07
 -9.275430e-07
 -9.143516e-07
 -9.027269e-07
 -9.029573e-07
 -9.306116e-07
 -1.012545e-06
 -1.010966e-06
 -6.958755e-07
 -4.176523e-07
 -4.310928e-07
 -4.662355e-07
 -4.145086e-07
 -2.108613e-07
 5.142735e-07
 -1.967696e-07
 -8.411013e-07
 -6.508805e-07
 -1.768895e-06
 -6.126950e-07
 -3.893091e-07
 -2.897511e-07
 -2.286214e-07
 -1.821370e-07
 -1.420322e-07
 -1.049332e-07
 -6.933240e-08
 -3.449786e-08
 0.000000e+00
 0.000000e+00
 -6.518182e-07
 -1.106761e-06
 -2.221282e-06
 -8.625559e-07
 1.025360e-07
 -4.917524e-07
 -6.254809e-07
 -6.614707e-07
 -6.729260e-07
 -6.785766e-07
 -6.837300e-07
 -6.897149e-07
 -6.962930e-07
 -7.026039e-07
 -7.080153e-07
 -7.130271e-07
 -7.200549e-07
 -7.334782e-07
 -7.572153e-07
 -7.892517e-07
 -8.193731e-07
 -8.369768e-07
 -8.399306e-07
 -8.334655e-07
 -8.250873e-07
 -8.245630e-07
 -8.540806e-07
 -9.926103e-07
 -2.028344e-06
 -6.751136e-07
 2.751262e-07
 -3.155283e-07
 -4.129064e-07
 -3.649344e-07
 -2.261371e-07
 -9.048950e-08
 -2.086680e-07
 -4.063654e-07
 -5.900476e-07
 -7.286146e-07
 -6.077720e-07
 -4.313688e-07
 -3.232859e-07
 -2.504224e-07
 -1.949146e-07
 -1.485674e-07
 -1.075770e-07
 -6.997334e-08
 -3.447244e-08
 0.000000e+00
 0.000000e+00
 -3.334070e-07
 -5.456031e-07
 -6.775928e-07
 1.675609e-05
 -6.950174e-07
 -6.514584e-07
 -6.553745e-07
 -6.536272e-07
 -6.543765e-07
 -6.577712e-07
 -6.627797e-07
 -6.682890e-07
 -6.733037e-07
 -6.772292e-07
 -6.802709e-07
 -6.836543e-07
 -6.894315e-07
 -6.997363e-07
 -7.153520e-07
 -7.341136e-07
 -7.510107e-07
 -7.610016e-07
 -7.619336e-07
 -7.546416e-07
 -7.410618e-07
 -7.225267e-07
 -6.982512e-07
 -6.594391e-07
 -6.614054e-07
 1.682802e-05
 -5.946146e-07
 -5.202244e-07
 -4.756747e-07
 -4.028110e-07
 -3.204631e-07
 -2.727032e-07
 -3.087566e-07
 -3.976381e-07
 -4.877469e-07
 -5.322218e-07
 -4.918914e-07
 -4.067353e-07
 -3.246299e-07
 -2.563637e-07
 -1.991877e-07
 -1.500161e-07
 -1.069310e-07
 -6.853857e-08
 -3.342327e-08
 0.000000e+00
 0.000000e+00
 -1.536228e-07
 -1.572034e-07
 3.811841e-07
 -5.735558e-07
 -1.905765e-06
 -8.447567e-07
 -6.861875e-07
 -6.424947e-07
 -6.330843e-07
 -6.353525e-07
 -6.413420e-07
 -6.474202e-07
 -6.515420e-07
 -6.529208e-07
 -6.523369e-07
 -6.519228e-07
 -6.540692e-07
 -6.601427e-07
 -6.697694e-07
 -6.808294e-07
 -6.901395e-07
 -6.946446e-07
 -6.923261e-07
 -6.819852e-07
 -6.617038e-07
 -6.253854e-07
 -5.526160e-07
 -3.678163e-07
 2.932582e-07
 -5.932092e-07
 -1.882289e-06
 -7.776370e-07
 -5.639327e-07
 -4.558965e-07
 -3.853687e-07
 -3.498613e-07
 -3.556082e-07
 -3.899466e-07
 -4.271758e-07
 -4.416776e-07
 -4.197192e-07
 -3.703732e-07
 -3.108763e-07
 -2.513880e-07
 -1.956856e-07
 -1.454562e-07
 -1.015760e-07
 -6.379292e-08
 -3.066376e-08
 0.000000e+00
 0.000000e+00
 -1.047045e-07
 -1.455931e-07
 -1.738242e-07
 -4.458404e-07
 -7.340183e-07
 -7.180380e-07
 -6.315938e-07
 -6.037466e-07
 -6.019672e-07
 -6.097782e-07
 -6.200231e-07
 -6.287004e-07
 -6.328032e-07
 -6.308308e-07
 -6.242816e-07
 -6.174402e-07
 -6.144698e-07
 -6.166860e-07
 -6.225578e-07
 -6.293236e-07
 -6.342824e-07
 -6.352839e-07
 -6.306603e-07
 -6.187009e-07
 -5.965583e-07
 -5.582433e-07
 -4.914772e-07
 -3.803908e-07
 -3.084414e-07
 -5.328695e-07
 -7.908653e-07
 -7.287281e-07
 -5.775572e-07
 -4.798296e-07
 -4.164662e-07
 -3.812815e-07
 -3.716945e-07
 -3.795046e-07
 -3.910273e-07
 -3.925579e-07
 -3.761875e-07
 -3.423509e-07
 -2.960280e-07
 -2.423990e-07
 -1.866158e-07
 -1.343425e-07
 -8.990788e-08
 -5.427067e-08
 -2.540029e-08
 0.000000e+00
 0.000000e+00
 -1.256298e-07
 -2.375033e-07
 -3.208522e-07
 -3.838140e-07
 -4.438597e-07
 -4.908915e-07
 -5.199069e-07
 -5.422166e-07
 -5.626645e-07
 -5.821848e-07
 -6.003632e-07
 -6.147701e-07
 -6.206943e-07
 -6.138827e-07
 -5.964902e-07
 -5.785121e-07
 -5.691625e-07
 -5.693873e-07
 -5.744878e-07
 -5.797305e-07
 -5.824747e-07
 -5.815560e-07
 -5.761646e-07
 -5.651189e-07
 -5.465329e-07
 -5.179528e-07
 -4.785193e-07
 -4.393125e-07
 -4.417487e-07
 -5.214862e-07
 -6.039360e-07
 -6.003501e-07
 -5.387652e-07
 -4.722384e-07
 -4.198930e-07
 -3.858356e-07
 -3.693303e-07
 -3.653481e-07
 -3.659118e-07
 -3.629742e-07
 -3.508835e-07
 -3.266797e-07
 -2.884660e-07
 -2.357514e-07
 -1.738189e-07
 -1.147367e-07
 -6.890398e-08
 -3.779906e-08
 -1.666903e-08
 0.000000e+00
 0.000000e+00
 -1.587176e-07
 -3.633010e-07
 -4.913166e-07
 -3.164762e-07
 -1.690077e-07
 -2.859125e-07
 -4.123426e-07
 -4.822618e-07
 -5.241094e-07
 -5.555915e-07
 -5.840064e-07
 -6.092560e-07
 -6.225134e-07
 -6.092221e-07
 -5.691057e-07
 -5.291835e-07
 -5.132790e-07
 -5.173480e-07
 -5.267021e-07
 -5.328873e-07
 -5.343742e-07
 -5.322277e-07
 -5.271983e-07
 -5.189456e-07
 -5.065842e-07
 -4.899125e-07
 -4.716031e-07
 -4.604558e-07
 -4.702709e-07
 -5.032131e-07
 -5.330772e-07
 -5.307952e-07
 -4.966048e-07
 -4.489483e-07
 -4.043953e-07
 -3.720590e-07
 -3.539003e-07
 -3.466470e-07
 -3.447643e-07
 -3.430702e-07
 -3.378120e-07
 -3.250772e-07
 -2.964549e-07
 -2.398371e-07
 -1.578443e-07
 -8.000642e-08
 -3.207860e-08
 -1.137108e-08
 -3.735370e-09
 0.000000e+00
 0.000000e+00
 -1.465147e-07
 -3.950659e-07
 -1.542610e-06
 -3.036573e-07
 5.356463e-07
 -1.593828e-07
 -3.636307e-07
 -4.475147e-07
 -4.943009e-07
 -5.309968e-07
 -5.693122e-07
 -6.140840e-07
 -6.532555e-07
 -6.378190e-07
 -5.407195e-07
 -4.494385e-07
 -4.359563e-07
 -4.616401e-07
 -4.833200e-07
 -4.911111e-07
 -4.897909e-07
 -4.855647e-07
 -4.813511e-07
 -4.769713e-07
 -4.713722e-07
 -4.645880e-07
 -4.589140e-07
 -4.590029e-07
 -4.691771e-07
 -4.872375e-07
 -5.011132e-07
 -4.962396e-07
 -4.670022e-07
 -4.212247e-07
 -3.754528e-07
 -3.431946e-07
 -3.272014e-07
 -3.226770e-07
 -3.237384e-07
 -3.268166e-07
 -3.314029e-07
 -3.380349e-07
 -3.348659e-07
 -2.756461e-07
 -1.368056e-07
 -8.880473e-09
 3.356056e-08
 2.672798e-08
 1.213103e-08
 0.000000e+00
 0.000000e+00
 -6.032608e-08
 -1.105539e-07
 -2.057073e-07
 1.718779e-05
 -3.311729e-07
 -3.529235e-07
 -4.078522e-07
 -4.431458e-07
 -4.726326e-07
 -5.040053e-07
 -5.463468e-07
 -6.156565e-07
 -7.388920e-07
 -7.777413e-07
 -5.021154e-07
 -2.643282e-07
 -3.235200e-07
 -4.167567e-07
 -4.557770e-07
 -4.584879e-07
 -4.474242e-07
 -4.383189e-07
 -4.355428e-07
 -4.364207e-07
 -4.377421e-07
 -4.386224e-07
 -4.405469e-07
 -4.463245e-07
 -4.581515e-07
 -4.748967e-07
 -4.896504e-07
 -4.885402e-07
 -4.556570e-07
 -3.928565e-07
 -3.307982e-07
 -2.967414e-07
 -2.889793e-07
 -2.935751e-07
 -3.012484e-07
 -3.094503e-07
 -3.218595e-07
 -3.523678e-07
 -4.297165e-07
 -4.206272e-07
 -1.003622e-07
 1.752910e-07
 1.445176e-07
 6.615161e-08
 2.396740e-08
 0.000000e+00
 0.000000e+00
 2.000485e-08
 1.367990e-07
 7.219107e-07
 -2.450277e-07
 -1.616930e-06
 -5.963774e-07
 -4.677467e-07
 -4.439833e-07
 -4.493068e-07
 -4.671212e-07
 -4.987978e-07
 -5.636462e-07
 -7.398885e-07
 -1.816125e-06
 -5.078236e-07
 3.901912e-07
 -2.625331e-07
 -4.312156e-07
 -4.647145e-07
 -4.384563e-07
 -4.008578e-07
 -3.835293e-07
 -3.861345e-07
 -3.958907e-07
 -4.049683e-07
 -4.118580e-07
 -4.182538e-07
 -4.270304e-07
 -4.412188e-07
 -4.632909e-07
 -4.931036e-07
 -5.156257e-07
 -4.808942e-07
 -3.628769e-07
 -2.515525e-07
 -2.222546e-07
 -2.397149e-07
 -2.625292e-07
 -2.791124e-07
 -2.894399e-07
 -2.972947e-07
 -3.208355e-07
 -4.420076e-07
 -1.460338e-06
 -1.012799e-07
 8.379750e-07
 2.173446e-07
 6.513909e-08
 1.858761e-08
 0.000000e+00
 0.000000e+00
 2.933240e-08
 8.742946e-08
 9.751681e-08
 -1.941063e-07
 -5.225042e-07
 -5.323722e-07
 -4.527941e-07
 -4.224633e-07
 -4.157375e-07
 -4.186231e-07
 -4.247741e-07
 -4.301189e-07
 -4.250635e-07
 -4.660136e-07
 1.697611e-05
 -5.072952e-07