<VTKFile type="UnstructuredGrid"  version="0.1"   >
<UnstructuredGrid>  
<Piece  NumberOfPoints="     2601"  NumberOfCells="     5000">  
<Points>  
<DataArray  type="Float64"  NumberOfComponents="3"  format="ascii">  
 0.000000 0.000000 0.000000 
 0.020000 0.000000 0.000000 
 0.040000 0.000000 0.000000 
 0.060000 0.000000 0.000000 
 0.080000 0.000000 0.000000 
 0.100000 0.000000 0.000000 
 0.120000 0.000000 0.000000 
 0.140000 0.000000 0.000000 
 0.160000 0.000000 0.000000 
 0.180000 0.000000 0.000000 
 0.200000 0.000000 0.000000 
 0.220000 0.000000 0.000000 
 0.240000 0.000000 0.000000 
 0.260000 0.000000 0.000000 
 0.280000 0.000000 0.000000 
 0.300000 0.000000 0.000000 
 0.320000 0.000000 0.000000 
 0.340000 0.000000 0.000000 
 0.360000 0.000000 0.000000 
 0.380000 0.000000 0.000000 
 0.400000 0.000000 0.000000 
 0.420000 0.000000 0.000000 
 0.440000 0.000000 0.000000 
 0.460000 0.000000 0.000000 
 0.480000 0.000000 0.000000 
 0.500000 0.000000 0.000000 
 0.520000 0.000000 0.000000 
 0.540000 0.000000 0.000000 
 0.560000 0.000000 0.000000 
 0.580000 0.000000 0.000000 
 0.600000 0.000000 0.000000 
 0.620000 0.000000 0.000000 
 0.640000 0.000000 0.000000 
 0.660000 0.000000 0.000000 
 0.680000 0.000000 0.000000 
 0.700000 0.000000 0.000000 
 0.720000 0.000000 0.000000 
 0.740000 0.000000 0.000000 
 0.760000 0.000000 0.000000 
 0.780000 0.000000 0.000000 
 0.800000 0.000000 0.000000 
 0.820000 0.000000 0.000000 
 0.840000 0.000000 0.000000 
 0.860000 0.000000 0.000000 
 0.880000 0.000000 0.000000 
 0.900000 0.000000 0.000000 
 0.920000 0.000000 0.000000 
 0.940000 0.000000 0.000000 
 0.960000 0.000000 0.000000 
 0.980000 0.000000 0.000000 
 1.000000 0.000000 0.000000 
 0.000000 0.020000 0.000000 
 0.020000 0.020000 0.000000 
 0.040000 0.020000 0.000000 
 0.060000 0.020000 0.000000 
 0.080000 0.020000 0.000000 
 0.100000 0.020000 0.000000 
 0.120000 0.020000 0.000000 
 0.140000 0.020000 0.000000 
 0.160000 0.020000 0.000000 
 0.180000 0.020000 0.000000 
 0.200000 0.020000 0.000000 
 0.220000 0.020000 0.000000 
 0.240000 0.020000 0.000000 
 0.260000 0.020000 0.000000 
 0.280000 0.020000 0.000000 
 0.300000 0.020000 0.000000 
 0.320000 0.020000 0.000000 
 0.340000 0.020000 0.000000 
 0.360000 0.020000 0.000000 
 0.380000 0.020000 0.000000 
 0.400000 0.020000 0.000000 
 0.420000 0.020000 0.000000 
 0.440000 0.020000 0.000000 
 0.460000 0.020000 0.000000 
 0.480000 0.020000 0.000000 
 0.500000 0.020000 0.000000 
 0.520000 0.020000 0.000000 
 0.540000 0.020000 0.000000 
 0.560000 0.020000 0.000000 
 0.580000 0.020000 0.000000 
 0.600000 0.020000 0.000000 
 0.620000 0.020000 0.000000 
 0.640000 0.020000 0.000000 
 0.660000 0.020000 0.000000 
 0.680000 0.020000 0.000000 
 0.700000 0.020000 0.000000 
 0.720000 0.020000 0.000000 
 0.740000 0.020000 0.000000 
 0.760000 0.020000 0.000000 
 0.780000 0.020000 0.000000 
 0.800000 0.020000 0.000000 
 0.820000 0.020000 0.000000 
 0.840000 0.020000 0.000000 
 0.860000 0.020000 0.000000 
 0.880000 0.020000 0.000000 
 0.900000 0.020000 0.000000 
 0.920000 0.020000 0.000000 
 0.940000 0.020000 0.000000 
 0.960000 0.020000 0.000000 
 0.980000 0.020000 0.000000 
 1.000000 0.020000 0.000000 
 0.000000 0.040000 0.000000 
 0.020000 0.040000 0.000000 
 0.040000 0.040000 0.000000 
 0.060000 0.040000 0.000000 
 0.080000 0.040000 0.000000 
 0.100000 0.040000 0.000000 
 0.120000 0.040000 0.000000 
 0.140000 0.040000 0.000000 
 0.160000 0.040000 0.000000 
 0.180000 0.040000 0.000000 
 0.200000 0.040000 0.000000 
 0.220000 0.040000 0.000000 
 0.240000 0.040000 0.000000 
 0.260000 0.040000 0.000000 
 0.280000 0.040000 0.000000 
 0.300000 0.040000 0.000000 
 0.320000 0.040000 0.000000 
 0.340000 0.040000 0.000000 
 0.360000 0.040000 0.000000 
 0.380000 0.040000 0.000000 
 0.400000 0.040000 0.000000 
 0.420000 0.040000 0.000000 
 0.440000 0.040000 0.000000 
 0.460000 0.040000 0.000000 
 0.480000 0.040000 0.000000 
 0.500000 0.040000 0.000000 
 0.520000 0.040000 0.000000 
 0.540000 0.040000 0.000000 
 0.560000 0.040000 0.000000 
 0.580000 0.040000 0.000000 
 0.600000 0.040000 0.000000 
 0.620000 0.040000 0.000000 
 0.640000 0.040000 0.000000 
 0.660000 0.040000 0.000000 
 0.680000 0.040000 0.000000 
 0.700000 0.040000 0.000000 
 0.720000 0.040000 0.000000 
 0.740000 0.040000 0.000000 
 0.760000 0.040000 0.000000 
 0.780000 0.040000 0.000000 
 0.800000 0.040000 0.000000 
 0.820000 0.040000 0.000000 
 0.840000 0.040000 0.000000 
 0.860000 0.040000 0.000000 
 0.880000 0.040000 0.000000 
 0.900000 0.040000 0.000000 
 0.920000 0.040000 0.000000 
 0.940000 0.040000 0.000000 
 0.960000 0.040000 0.000000 
 0.980000 0.040000 0.000000 
 1.000000 0.040000 0.000000 
 0.000000 0.060000 0.000000 
 0.020000 0.060000 0.000000 
 0.040000 0.060000 0.000000 
 0.060000 0.060000 0.000000 
 0.080000 0.060000 0.000000 
 0.100000 0.060000 0.000000 
 0.120000 0.060000 0.000000 
 0.140000 0.060000 0.000000 
 0.160000 0.060000 0.000000 
 0.180000 0.060000 0.000000 
 0.200000 0.060000 0.000000 
 0.220000 0.060000 0.000000 
 0.240000 0.060000 0.000000 
 0.260000 0.060000 0.000000 
 0.280000 0.060000 0.000000 
 0.300000 0.060000 0.000000 
 0.320000 0.060000 0.000000 
 0.340000 0.060000 0.000000 
 0.360000 0.060000 0.000000 
 0.380000 0.060000 0.000000 
 0.400000 0.060000 0.000000 
 0.420000 0.060000 0.000000 
 0.440000 0.060000 0.000000 
 0.460000 0.060000 0.000000 
 0.480000 0.060000 0.000000 
 0.500000 0.060000 0.000000 
 0.520000 0.060000 0.000000 
 0.540000 0.060000 0.000000 
 0.560000 0.060000 0.000000 
 0.580000 0.060000 0.000000 
 0.600000 0.060000 0.000000 
 0.620000 0.060000 0.000000 
 0.640000 0.060000 0.000000 
 0.660000 0.060000 0.000000 
 0.680000 0.060000 0.000000 
 0.700000 0.060000 0.000000 
 0.720000 0.060000 0.000000 
 0.740000 0.060000 0.000000 
 0.760000 0.060000 0.000000 
 0.780000 0.060000 0.000000 
 0.800000 0.060000 0.000000 
 0.820000 0.060000 0.000000 
 0.840000 0.060000 0.000000 
 0.860000 0.060000 0.000000 
 0.880000 0.060000 0.000000 
 0.900000 0.060000 0.000000 
 0.920000 0.060000 0.000000 
 0.940000 0.060000 0.000000 
 0.960000 0.060000 0.000000 
 0.980000 0.060000 0.000000 
 1.000000 0.060000 0.000000 
 0.000000 0.080000 0.000000 
 0.020000 0.080000 0.000000 
 0.040000 0.080000 0.000000 
 0.060000 0.080000 0.000000 
 0.080000 0.080000 0.000000 
 0.100000 0.080000 0.000000 
 0.120000 0.080000 0.000000 
 0.140000 0.080000 0.000000 
 0.160000 0.080000 0.000000 
 0.180000 0.080000 0.000000 
 0.200000 0.080000 0.000000 
 0.220000 0.080000 0.000000 
 0.240000 0.080000 0.000000 
 0.260000 0.080000 0.000000 
 0.280000 0.080000 0.000000 
 0.300000 0.080000 0.000000 
 0.320000 0.080000 0.000000 
 0.340000 0.080000 0.000000 
 0.360000 0.080000 0.000000 
 0.380000 0.080000 0.000000 
 0.400000 0.080000 0.000000 
 0.420000 0.080000 0.000000 
 0.440000 0.080000 0.000000 
 0.460000 0.080000 0.000000 
 0.480000 0.080000 0.000000 
 0.500000 0.080000 0.000000 
 0.520000 0.080000 0.000000 
 0.540000 0.080000 0.000000 
 0.560000 0.080000 0.000000 
 0.580000 0.080000 0.000000 
 0.600000 0.080000 0.000000 
 0.620000 0.080000 0.000000 
 0.640000 0.080000 0.000000 
 0.660000 0.080000 0.000000 
 0.680000 0.080000 0.000000 
 0.700000 0.080000 0.000000 
 0.720000 0.080000 0.000000 
 0.740000 0.080000 0.000000 
 0.760000 0.080000 0.000000 
 0.780000 0.080000 0.000000 
 0.800000 0.080000 0.000000 
 0.820000 0.080000 0.000000 
 0.840000 0.080000 0.000000 
 0.860000 0.080000 0.000000 
 0.880000 0.080000 0.000000 
 0.900000 0.080000 0.000000 
 0.920000 0.080000 0.000000 
 0.940000 0.080000 0.000000 
 0.960000 0.080000 0.000000 
 0.980000 0.080000 0.000000 
 1.000000 0.080000 0.000000 
 0.000000 0.100000 0.000000 
 0.020000 0.100000 0.000000 
 0.040000 0.100000 0.000000 
 0.060000 0.100000 0.000000 
 0.080000 0.100000 0.000000 
 0.100000 0.100000 0.000000 
 0.120000 0.100000 0.000000 
 0.140000 0.100000 0.000000 
 0.160000 0.100000 0.000000 
 0.180000 0.100000 0.000000 
 0.200000 0.100000 0.000000 
 0.220000 0.100000 0.000000 
 0.240000 0.100000 0.000000 
 0.260000 0.100000 0.000000 
 0.280000 0.100000 0.000000 
 0.300000 0.100000 0.000000 
 0.320000 0.100000 0.000000 
 0.340000 0.100000 0.000000 
 0.360000 0.100000 0.000000 
 0.380000 0.100000 0.000000 
 0.400000 0.100000 0.000000 
 0.420000 0.100000 0.000000 
 0.440000 0.100000 0.000000 
 0.460000 0.100000 0.000000 
 0.480000 0.100000 0.000000 
 0.500000 0.100000 0.000000 
 0.520000 0.100000 0.000000 
 0.540000 0.100000 0.000000 
 0.560000 0.100000 0.000000 
 0.580000 0.100000 0.000000 
 0.600000 0.100000 0.000000 
 0.620000 0.100000 0.000000 
 0.640000 0.100000 0.000000 
 0.660000 0.100000 0.000000 
 0.680000 0.100000 0.000000 
 0.700000 0.100000 0.000000 
 0.720000 0.100000 0.000000 
 0.740000 0.100000 0.000000 
 0.760000 0.100000 0.000000 
 0.780000 0.100000 0.000000 
 0.800000 0.100000 0.000000 
 0.820000 0.100000 0.000000 
 0.840000 0.100000 0.000000 
 0.860000 0.100000 0.000000 
 0.880000 0.100000 0.000000 
 0.900000 0.100000 0.000000 
 0.920000 0.100000 0.000000 
 0.940000 0.100000 0.000000 
 0.960000 0.100000 0.000000 
 0.980000 0.100000 0.000000 
 1.000000 0.100000 0.000000 
 0.000000 0.120000 0.000000 
 0.020000 0.120000 0.000000 
 0.040000 0.120000 0.000000 
 0.060000 0.120000 0.000000 
 0.080000 0.120000 0.000000 
 0.100000 0.120000 0.000000 
 0.120000 0.120000 0.000000 
 0.140000 0.120000 0.000000 
 0.160000 0.120000 0.000000 
 0.180000 0.120000 0.000000 
 0.200000 0.120000 0.000000 
 0.220000 0.120000 0.000000 
 0.240000 0.120000 0.000000 
 0.260000 0.120000 0.000000 
 0.280000 0.120000 0.000000 
 0.300000 0.120000 0.000000 
 0.320000 0.120000 0.000000 
 0.340000 0.120000 0.000000 
 0.360000 0.120000 0.000000 
 0.380000 0.120000 0.000000 
 0.400000 0.120000 0.000000 
 0.420000 0.120000 0.000000 
 0.440000 0.120000 0.000000 
 0.460000 0.120000 0.000000 
 0.480000 0.120000 0.000000 
 0.500000 0.120000 0.000000 
 0.520000 0.120000 0.000000 
 0.540000 0.120000 0.000000 
 0.560000 0.120000 0.000000 
 0.580000 0.120000 0.000000 
 0.600000 0.120000 0.000000 
[...]
<PointData  Scalars="U"> 
<DataArray  type="Float64"  Name="U"  format="ascii"> 
 0.000000e+00
 0.000000e+00
 0.000000e+00
 0.000000e+00
 0.000000e+00
 0.000000e+00
 0.000000e+00
 0.000000e+00
 0.000000e+00
 0.000000e+00
 0.000000e+00
 0.000000e+00
 0.000000e+00
 0.000000e+00
 0.000000e+00
 0.000000e+00
 0.000000e+00
 0.000000e+00
 0.000000e+00
 0.000000e+00
 0.000000e+00
 0.000000e+00
 0.000000e+00
 0.000000e+00
 0.000000e+00
 0.000000e+00
 0.000000e+00
 0.000000e+00
 0.000000e+00
 0.000000e+00
 0.000000e+00
 0.000000e+00
 0.000000e+00
 0.000000e+00
 0.000000e+00
 0.000000e+00
 0.000000e+00
 0.000000e+00
 0.000000e+00
 0.000000e+00
 0.000000e+00
 0.000000e+00
 0.000000e+00
 0.000000e+00
 0.000000e+00
 0.000000e+00
 0.000000e+00
 0.000000e+00
 0.000000e+00
 0.000000e+00
 0.000000e+00
 0.000000e+00
 -3.692939e-09
 -7.131405e-09
 -1.008887e-08
 -1.238837e-08
 -1.391381e-08
 -1.461027e-08
 -1.447583e-08
 -1.354937e-08
 -1.189894e-08
 -9.616136e-09
 -6.827847e-09
 -3.778105e-09
 -1.255008e-09
 -2.777655e-09
 -2.570560e-08
 -1.574610e-07
 -1.230860e-06
 1.252400e-08
 8.607717e-07
 2.425746e-07
 1.599810e-07
 2.422763e-07
 2.063195e-07
 1.734094e-05
 -3.659995e-07
 -2.024568e-07
 2.702503e-08
 2.966167e-07
 3.811092e-07
 1.756644e-05
 -1.622273e-07
 -1.854727e-07
 -1.156310e-06
 -8.345888e-07
 1.843493e-05
 1.810350e-05
 -3.087136e-07
 -3.247691e-07
 -2.316385e-07
 -1.489597e-07
 -8.978258e-08
 -5.165189e-08
 -2.939921e-08
 -1.651819e-08
 -7.845925e-09
 -6.106339e-10
 5.256762e-09
 7.761896e-09
 5.202569e-09
 0.000000e+00
 0.000000e+00
 -7.645194e-09
 -1.475238e-08
 -2.084616e-08
 -2.556123e-08
 -2.866556e-08
 -3.005820e-08
 -2.974840e-08
 -2.782626e-08
 -2.443485e-08
 -1.975112e-08
 -1.397624e-08
 -7.323879e-09
 4.108285e-11
 8.282434e-09
 1.911851e-08
 4.208605e-08
 2.291137e-08
 1.749549e-05
 5.928222e-08
 1.290841e-07
 1.928636e-07
 3.596767e-07
 9.154204e-07
 -2.278233e-07
 -1.713327e-06
 -4.594498e-07
 2.455490e-08
 5.250909e-07
 1.341546e-06
 2.786995e-07
 -1.169828e-06
 -3.445198e-08
 3.723292e-07
 1.866586e-05
 1.832467e-05
 -1.508311e-06
 -1.892991e-06
 -7.089082e-07
 -4.386822e-07
 -2.742172e-07
 -1.579581e-07
 -8.715591e-08
 -4.972894e-08
 -2.923215e-08
 -1.472576e-08
 -2.680089e-10
 1.394177e-08
 2.103109e-08
 1.533445e-08
 0.000000e+00
 0.000000e+00
 -1.214634e-08
 -2.340585e-08
 -3.300509e-08
 -4.036723e-08
 -4.514761e-08
 -4.722197e-08
 -4.664190e-08
 -4.357772e-08
 -3.826708e-08
 -3.098029e-08
 -2.199845e-08
 -1.154515e-08
 6.373719e-10
 1.755889e-08
 5.620859e-08
 2.015641e-07
 8.642121e-07
 5.120819e-08
 -1.167972e-06
 -5.683433e-08
 1.440246e-07
 2.581901e-07
 2.482070e-07
 -2.118482e-07
 -1.636392e-06
 -4.345055e-07
 -4.106935e-07
 4.368863e-07
 1.272627e-06
 3.675414e-07
 -6.966525e-09
 2.213915e-07
 1.182783e-06
 1.113743e-06
 -1.048886e-06
 -1.730272e-06
 -9.631628e-07
 -7.852370e-07
 -5.745966e-07
 -3.572374e-07
 -1.769762e-07
 -8.878531e-08
 -5.446331e-08
 -3.662107e-08
 -2.255875e-08
 -1.146015e-09
 2.995027e-08
 4.894977e-08
 3.626068e-08
 0.000000e+00
 0.000000e+00
 -1.755410e-08
 -3.375376e-08
 -4.744119e-08
 -5.779266e-08
 -6.436533e-08
 -6.705977e-08
 -6.603018e-08
 -6.158059e-08
 -5.407775e-08
 -4.390112e-08
 -3.144581e-08
 -1.720292e-08
 -1.970457e-09
 1.265434e-08
 2.285766e-08
 1.675225e-08
 4.935930e-08
 9.640496e-08
 7.339423e-08
 7.803821e-08
 1.384078e-07
 1.831851e-07
 1.767361e-07
 9.510799e-08
 -3.219446e-08
 1.743183e-05
 -3.656828e-09
 1.752888e-05
 4.500547e-08
 2.262836e-08
 3.281634e-08
 1.194413e-07
 1.492886e-07
 -8.555266e-07
 -1.500251e-08
 2.810456e-07
 -5.648541e-07
 -7.669988e-07
 -7.535463e-07
 -4.029967e-07
 -7.941420e-08
 -4.157484e-08
 -4.792387e-08
 -3.906646e-08
 -3.876009e-08
 -1.759656e-08
 5.851596e-08
 1.147930e-07
 8.306317e-08
 0.000000e+00
 0.000000e+00
 -2.435088e-08
 -4.667228e-08
 -6.527922e-08
 -7.905561e-08
 -8.750389e-08
 -9.064605e-08
 -8.884788e-08
 -8.263736e-08
 -7.256281e-08
 -5.911332e-08
 -4.272542e-08
 -2.396580e-08
 -4.263074e-09
 1.124007e-08
 1.759234e-09
 -1.227075e-07
 -1.191429e-06
 4.669463e-08
 8.739966e-07
 2.382794e-07
 1.377268e-07
 1.566223e-07
 2.139180e-07
 3.700850e-07
 1.031980e-06
 2.756098e-07
 -4.026472e-07
 -2.739274e-07
 -1.532295e-06
 -4.644096e-07
 -3.794593e-08
 1.431746e-07
 -9.357289e-07
 1.302546e-07
 1.817816e-05
 -1.996337e-07
 -5.061559e-07
 -7.608513e-07
 -1.838107e-06
 -5.034718e-07
 4.710906e-07
 -3.696070e-08
 -5.881152e-08
 -2.044589e-08
 -7.049191e-08
 -1.181341e-07
 1.092662e-07
 2.949978e-07
 1.782753e-07
 0.000000e+00
 0.000000e+00
 -3.323827e-08
 -6.340534e-08
 -8.805522e-08
 -1.057354e-07
 -1.160059e-07
 -1.191985e-07
 -1.160796e-07
 -1.075461e-07
 -9.441011e-08
 -7.727422e-08
 -5.647836e-08
 -3.211693e-08
 -4.188055e-09
 2.694102e-08
 5.973618e-08
 9.433151e-08
 6.157492e-08
 1.749091e-05
 3.380602e-09
 3.425339e-08
 5.434544e-08
 1.084386e-07
 1.898830e-07
 3.183221e-07
 4.299631e-07
 2.871512e-07
 5.816354e-08
 -1.922251e-07
 -5.182342e-07
 -1.492259e-06
 -2.162413e-08
 9.981089e-07
 4.608438e-07
 1.832248e-05
 -1.609481e-07
 -1.536726e-06
 -5.838512e-07
 -4.970104e-07
 -5.483555e-07
 1.683644e-05
 -6.205050e-07
 -3.419852e-07
 -1.062470e-07
 9.270576e-08
 8.666967e-08
 -1.083199e-06
 1.123115e-07
 9.472296e-07
 2.478099e-07
 0.000000e+00
 0.000000e+00
 -4.530908e-08
 -8.583184e-08
 -1.179772e-07
 -1.399559e-07
 -1.516569e-07
 -1.540814e-07
 -1.487092e-07
 -1.370204e-07
 -1.202119e-07
 -9.905113e-08
 -7.377263e-08
 -4.388019e-08
 -7.527901e-09
 4.071238e-08
 1.188498e-07
 2.979526e-07
 9.378926e-07
 1.608514e-08
 -1.313263e-06
 -2.436910e-07
 -5.598415e-08
 3.795950e-08
 1.178711e-07
 1.987948e-07
 2.477693e-07
 2.138819e-07
 1.221156e-07
 2.346148e-08
 -2.286160e-08
 -2.457602e-08
 1.752996e-05
 2.552118e-07
 8.888028e-07
 -7.310302e-08
 -1.443061e-06
 -4.932641e-07
 -3.793400e-07
 -2.130132e-07
 3.743448e-07
 -6.591195e-07
 -2.952679e-06
 -5.953542e-07
 -5.297030e-07
 2.123306e-07
 9.905586e-07
 2.746835e-07
 1.755123e-05
 2.992476e-08
 3.231412e-08
 0.000000e+00
 0.000000e+00
 -6.238434e-08
 -1.169585e-07
 -1.583583e-07
 -1.846403e-07
 -1.966591e-07
 -1.967550e-07
 -1.876044e-07
 -1.715417e-07
 -1.502790e-07
 -1.248329e-07
 -9.548837e-08
 -6.163622e-08
 -2.123431e-08
 3.061479e-08
 1.044231e-07
 2.138114e-07
 2.737759e-07
 2.791437e-08
 -2.575002e-07
 -2.247590e-07
 -1.017023e-07
 -2.526299e-08
 3.641359e-08
 1.037202e-07
 1.689048e-07
 2.000145e-07
 1.924047e-07
 1.957247e-07
 3.258811e-07
 9.720650e-07
 1.081786e-07
 -1.147499e-06
 -1.873146e-07
 -1.386258e-06
 -4.358487e-07
 3.919342e-07
 -1.491964e-07
 -1.876991e-07
 -2.200411e-07
 -4.360529e-07
 -4.150392e-07
 1.738141e-05
 6.531687e-09
 1.753810e-05
 2.263577e-07
 8.967350e-07
 -1.961700e-08
 -1.325453e-06
 -2.299415e-07
 0.000000e+00
 0.000000e+00
 -8.772634e-08
 -1.618793e-07
 -2.143419e-07
 -2.438280e-07
 -2.536251e-07
 -2.486070e-07
 -2.333022e-07
 -2.111462e-07
 -1.844107e-07
 -1.543735e-07
 -1.214955e-07
 -8.551338e-08
 -4.546337e-08
 4.589914e-11
 5.064902e-08
 9.405078e-08
 8.802765e-08
 -3.154414e-09
 -1.045293e-07
 -1.273643e-07
 -1.003725e-07
 -7.543458e-08
 -5.571923e-08
 4.515819e-09
 1.299677e-07
 2.350161e-07
 2.596083e-07
 2.658824e-07
 3.251124e-07
 3.726924e-07
 1.470519e-07
 -1.127297e-07
 -1.025081e-07
 -1.591557e-07
 1.718662e-05
 -3.217337e-07
 -2.586998e-07
 -2.206987e-07
 -2.784896e-07
 -1.196404e-06
 7.648509e-07
 9.533052e-07
 -2.853412e-07
 -1.908396e-07
 -1.264428e-06
 -7.953677e-08
 -1.168727e-07
 -3.066182e-07
 -2.040614e-07
 0.000000e+00
 0.000000e+00
 -1.276930e-07
 -2.297417e-07
 -2.940761e-07
 -3.229308e-07
 -3.253137e-07
 -3.105452e-07
 -2.856517e-07
 -2.551649e-07
 -2.217107e-07
 -1.866371e-07
 -1.504875e-07
 -1.133526e-07
 -7.526646e-08
 -3.702048e-08
 -2.124157e-09
 1.999224e-08
 1.501948e-08
 -1.993201e-08
 -6.030633e-08
 -8.050821e-08
 -8.710168e-08
 -1.105093e-07
 -1.888452e-07
 -1.889309e-07
 1.176921e-07
 3.800343e-07
 3.428210e-07
 2.718947e-07
 2.471814e-07
 2.160148e-07
 1.316296e-07
 6.803950e-08
 1.659074e-07
 7.553937e-07
 -2.055237e-07
 -1.539575e-06
 -4.318988e-07
 -1.778784e-07
 -1.769367e-09
 1.208256e-07
 1.769089e-05
 9.981682e-08
 -5.923290e-08
 -2.318745e-07
 -3.495953e-07
 -2.503987e-07
 -1.746891e-07
 -1.698266e-07
 -1.099271e-07
 0.000000e+00
 0.000000e+00
 -1.960406e-07
 -3.379468e-07
 -4.103446e-07
 -4.284316e-07
 -4.137070e-07
 -3.821754e-07
 -3.432782e-07
 -3.019435e-07
 -2.604996e-07
 -2.199010e-07
 -1.804455e-07
 -1.422386e-07
 -1.056248e-07
 -7.177803e-08
 -4.347949e-08
 -2.536696e-08
 -2.166893e-08
 -3.081558e-08
 -4.344230e-08
 -5.114501e-08
 -5.815068e-08
 -8.992690e-08
 -2.307093e-07
 -1.272584e-06
 6.806328e-08
 9.970245e-07
 3.728309e-07
 2.210248e-07
 1.727049e-07
 1.411206e-07
 1.049318e-07
 8.735730e-08
 1.226559e-07
 1.283518e-07
 -1.505477e-07
 -4.321769e-07
 -3.368781e-07
 -7.790680e-08
 2.455939e-07
 9.860832e-07
 1.026829e-07
 -1.277841e-06
 -3.143526e-07
 -2.422767e-07
 -2.389224e-07
 -2.034249e-07
 -1.587659e-07
 -1.207468e-07
 -6.890636e-08
 0.000000e+00
 0.000000e+00
 -3.268552e-07
 -5.210895e-07
 -5.814458e-07
 -5.655282e-07
 -5.177548e-07
 -4.604340e-07
 -4.029304e-07
 -3.486161e-07
 -2.983407e-07
 -2.519907e-07
 -2.091900e-07
 -1.696615e-07
 -1.334902e-07
 -1.013675e-07
 -7.471101e-08
 -5.527346e-08
 -4.380492e-08
 -3.829345e-08
 -3.387315e-08
 -2.555199e-08
 -1.100629e-08
 1.027541e-08
 4.479041e-08
 3.457790e-08
 1.750934e-05
 6.304670e-08
 1.014084e-07
 9.252641e-08
 8.925668e-08
 7.932922e-08
 6.242021e-08
 4.514206e-08
 2.411147e-08
 -3.836852e-08
 -1.739931e-07
 -2.883691e-07
 -2.373093e-07
 -1.457282e-08
 2.477831e-07
 3.667433e-07
 1.080412e-07
 -2.290984e-07
 -2.660419e-07
 -2.109945e-07
 -1.860885e-07
 -1.596383e-07
 -1.272229e-07
 -9.112016e-08
 -4.862120e-08
 0.000000e+00
 0.000000e+00
 -6.211078e-07
 -8.462054e-07
 -8.244851e-07
 -7.305435e-07
 -6.293232e-07
 -5.379764e-07
 -4.590224e-07
 -3.911107e-07
 -3.322208e-07
 -2.805496e-07
 -2.347222e-07
 -1.938305e-07
 -1.574412e-07
 -1.255770e-07
 -9.857876e-08
 -7.670149e-08
 -5.940457e-08
 -4.465268e-08
 -2.876782e-08
 -6.627495e-09
 2.992878e-08
 1.015675e-07
 2.827405e-07
 9.358805e-07
 3.510906e-08
 -1.276797e-06
 -2.056215e-07
 -3.754672e-08
 1.404113e-08
 2.612830e-08
 1.920343e-08
 -6.280803e-10
 -3.699360e-08
 -1.025950e-07
 -2.059855e-07
 -3.403588e-07
 -3.386189e-07
 1.801288e-08
 3.361271e-07
 2.939069e-07
 1.072053e-07
 -6.479146e-08
 -1.416387e-07
 -1.515927e-07
 -1.409777e-07
 -1.223435e-07
 -9.778195e-08
 -6.871797e-08
 -3.571325e-08
 0.000000e+00
 0.000000e+00
 -1.453751e-06
 -1.393819e-06
 -1.120049e-06
 -8.962899e-07
 -7.291158e-07
 -6.026495e-07
 -5.040112e-07
 -4.246340e-07
 -3.589573e-07
 -3.033429e-07
 -2.553982e-07
 -2.135758e-07
 -1.769278e-07
 -1.449169e-07
 -1.171944e-07
 -9.328148e-08
 -7.216638e-08
 -5.194113e-08
 -2.958140e-08
 -6.308335e-10
 4.199837e-08
 1.107549e-07
 2.207682e-07
 2.871761e-07
 5.096766e-08
 -2.268323e-07
 -1.937959e-07
 -8.091177e-08
 -2.794071e-08
 -9.711427e-09
 -1.261964e-08
 -3.189430e-08
 -6.830398e-08
 -1.250889e-07
 -2.079682e-07
 -3.682234e-07
 -1.383118e-06
 3.214762e-09
 9.549683e-07
 3.084712e-07
 9.315762e-08
 -2.326686e-08
 -8.379156e-08
 -1.045434e-07
 -1.033152e-07
 -9.101785e-08
 -7.257945e-08
 -5.040730e-08
 -2.584524e-08
 0.000000e+00
 0.000000e+00
 -3.507055e-06
 -1.974222e-06
 -1.346828e-06
 -1.004321e-06
 -7.890465e-07
 -6.402391e-07
 -5.302272e-07
 -4.447655e-07
 -3.758315e-07
 -3.186032e-07
 -2.700504e-07
 -2.282160e-07
 -1.918120e-07
 -1.599498e-07
 -1.319106e-07
 -1.069086e-07
 -8.385191e-08
 -6.114838e-08
 -3.660289e-08
 -7.428830e-09
 2.938271e-08
 7.471382e-08
 1.168552e-07
 1.130955e-07
 2.596923e-08
 -7.184732e-08
 -9.287811e-08
 -6.475229e-08
 -3.763455e-08
 -2.577701e-08
 -2.900228e-08
 -4.649777e-08
 -7.889573e-08
 -1.248685e-07
 -1.649607e-07
 -1.345078e-07
 -5.775668e-08
 1.750669e-05
 7.165697e-08
 6.954088e-08
 8.139581e-09
 -3.770078e-08
 -6.653866e-08
 -7.779597e-08
 -7.573059e-08
 -6.549435e-08
 -5.093673e-08
 -3.445792e-08
 -1.731168e-08
 0.000000e+00
 0.000000e+00
 -3.692364e-06
 -1.932593e-06
 -1.330433e-06
 -9.977556e-07
 -7.871334e-07
 -6.409990e-07
 -5.328335e-07
 -4.488640e-07
 -3.812813e-07
 -3.253591e-07
 -2.780922e-07
 -2.374916e-07
 -2.021829e-07
 -1.711488e-07
 -1.435375e-07
 -1.185043e-07
 -9.508101e-08
 -7.209372e-08
 -4.818017e-08
 -2.203705e-08
 6.738857e-09
 3.547829e-08
 5.488660e-08
 4.983763e-08
 1.593492e-08
 -2.339977e-08
 -4.148941e-08
 -3.887864e-08
 -3.060745e-08
 -2.687924e-08
 -3.146249e-08
 -4.613300e-08
 -7.386805e-08
 -1.206450e-07
 -1.888692e-07
 -6.040111e-08
 8.618328e-07
 2.000143e-07
 -1.168358e-06
 -1.965993e-07
 -8.895688e-08
 -6.997673e-08
 -6.785405e-08
 -6.441677e-08
 -5.604107e-08
 -4.404731e-08
 -3.102138e-08
 -1.904965e-08
 -8.890989e-09
 0.000000e+00
 0.000000e+00
 -1.159842e-06
 -1.308427e-06
 -1.083022e-06
 -8.808955e-07
 -7.250867e-07
 -6.056623e-07
 -5.121471e-07
 -4.370530e-07
 -3.753414e-07
 -3.236212e-07
 -2.795664e-07
 -2.415331e-07
 -2.083063e-07
 -1.789253e-07
 -1.525643e-07
 -1.284535e-07
 -1.058372e-07
 -8.396086e-08
 -6.210071e-08
 -3.972774e-08
 -1.702855e-08
 4.038286e-09
 1.884623e-08
 2.181509e-08
 1.215361e-08
 -2.607725e-09
 -1.320198e-08
 -1.714687e-08
 -1.787418e-08
 -1.940647e-08
 -2.406006e-08
 -3.327025e-08
 -5.030760e-08
 -8.879917e-08
 -2.131160e-07
 -1.192717e-06
 1.781901e-07
 8.503354e-07
 -6.047810e-08
 -1.854435e-07
 -1.251008e-07
 -9.138504e-08
 -7.244778e-08
 -5.667942e-08
 -4.013631e-08
 -2.352768e-08
 -9.804597e-09
 -1.594579e-09
 9.195061e-10
 0.000000e+00
 0.000000e+00
 -5.370812e-07
 -7.794287e-07
 -7.891120e-07
 -7.151907e-07
 -6.270128e-07
 -5.449720e-07
 -4.734466e-07
 -4.121263e-07
 -3.595821e-07
 -3.143283e-07
 -2.750882e-07
 -2.408093e-07
 -2.106049e-07
 -1.836903e-07
 -1.593424e-07
 -1.369075e-07
 -1.158558e-07
 -9.583459e-08
 -7.663510e-08
 -5.803351e-08
 -3.967903e-08
 -2.146022e-08
 -4.523718e-09
 8.203898e-09
 1.383859e-08
 1.250699e-08
 7.325982e-09
 1.403960e-09
 -3.963160e-09
 -8.633875e-09
 -1.230681e-08
 -1.377093e-08
 -1.068142e-08
 8.725348e-10
 3.021969e-08
 1.184946e-08
 1.744305e-05
 -1.043332e-07
 -1.500571e-07
 -1.612161e-07
 -1.279202e-07
 -9.940128e-08
 -7.526333e-08
 -5.043340e-08
 -2.469298e-08
 -6.402563e-11
 1.741067e-08
 2.200095e-08
 1.434527e-08
 0.000000e+00
 0.000000e+00
 -2.971120e-07
 -4.876667e-07
 -5.594523e-07
 -5.568763e-07
 -5.206661e-07
 -4.731608e-07
 -4.244103e-07
 -3.784322e-07
 -3.365729e-07
 -2.990604e-07
 -2.656769e-07
 -2.360269e-07
 -2.096228e-07
 -1.858988e-07
 -1.642277e-07
 -1.440105e-07
 -1.248724e-07
 -1.068844e-07
 -9.053673e-08
 -7.610672e-08
 -6.240997e-08
 -4.605544e-08
 -2.373249e-08
 2.298005e-09
 2.309870e-08
 3.141372e-08
 2.820716e-08
 1.919599e-08
 9.300430e-09
 1.308808e-09
 -2.573180e-09
 1.383892e-09
 2.102059e-08
 7.579876e-08
 2.337023e-07
 8.435452e-07
 -1.248474e-07
 -1.483586e-06
 -3.851676e-07
 -1.710017e-07
 -1.158856e-07
 -1.041588e-07
 -7.968188e-08
 -4.518587e-08
 -9.115716e-09
 3.053120e-08
 5.889127e-08
 5.871008e-08
 3.452704e-08
 0.000000e+00
 0.000000e+00
 -1.849241e-07
 -3.241241e-07
 -4.017477e-07
 -4.286926e-07
 -4.236470e-07
 -4.016782e-07
 -3.722039e-07
 -3.404551e-07
 -3.091525e-07
 -2.796385e-07
 -2.525187e-07
 -2.279855e-07
 -2.059484e-07
 -1.860553e-07
 -1.676949e-07
 -1.501151e-07
 -1.328267e-07
 -1.162806e-07
 -1.022730e-07
 -9.298897e-08
 -8.767042e-08
 -7.767032e-08
 -4.814356e-08
 1.975715e-09
 4.660550e-08
 6.266406e-08
 5.459668e-08
 3.743870e-08
 2.055930e-08
 7.396053e-09
 -7.088737e-11
 2.285132e-09
 2.289052e-08
 7.345795e-08
 1.573331e-07
 1.602783e-07
 -2.169637e-07
 -5.755940e-07
 -3.213127e-07
 -2.504618e-08
 -7.148152e-08
 -1.338002e-07
 -9.343514e-08
 -3.783015e-08
 -2.081419e-09
 7.172955e-08
 1.342234e-07
 1.206575e-07
 6.391521e-08
 0.000000e+00
 0.000000e+00
 -1.247059e-07
 -2.270474e-07
 -2.956688e-07
 -3.316116e-07
 -3.425341e-07
 -3.370084e-07
 -3.218719e-07
 -3.018157e-07
 -2.798295e-07
 -2.577587e-07
 -2.367296e-07
 -2.174055e-07
 -2.000836e-07
 -1.846472e-07
 -1.704151e-07
 -1.560891e-07
 -1.403013e-07
 -1.232729e-07
 -1.088736e-07
 -1.044773e-07
 -1.158491e-07
 -1.310953e-07
 -9.955580e-08
 7.913081e-09
 1.050118e-07
 1.194842e-07
 8.856307e-08
 5.434772e-08
 2.790456e-08
 8.174523e-09
 -6.597725e-09
 -1.432609e-08
 -5.656789e-09
 3.052636e-08
 7.389789e-08
 3.144667e-08
 -2.386320e-07
 -1.448834e-06
 -2.137807e-07
 6.421883e-07
 -9.965911e-08
 -2.990937e-07
 -1.081002e-07
 1.738503e-08
 -6.643563e-08
 1.222491e-07
 3.115621e-07
 2.216163e-07
 9.430989e-08
 0.000000e+00
 0.000000e+00
 -8.903260e-08
 -1.659773e-07
 -2.233388e-07
 -2.595999e-07
 -2.775178e-07
 -2.815718e-07
 -2.761753e-07
 -2.649200e-07
 -2.504761e-07
 -2.347643e-07
 -2.191788e-07
 -2.047576e-07
 -1.922383e-07
 -1.819163e-07
 -1.731809e-07
 -1.637667e-07
 -1.496872e-07
 -1.283593e-07
 -1.054115e-07
 -9.810387e-08
 -1.309288e-07
 -2.315320e-07
 -2.567353e-07
 2.835499e-08
 2.733882e-07
 2.176769e-07
 1.194310e-07
 6.204306e-08
 2.856977e-08
 4.608140e-09
 -1.881184e-08
 -4.610664e-08
 -6.622550e-08
 -3.423339e-08
 6.666639e-08
 1.345647e-07
 1.014619e-07
 -2.699844e-08
 1.734682e-05
 -1.900980e-07
 -3.292609e-07
 -1.413646e-06
 -1.335404e-07
 6.246767e-07
 -1.072485e-06
 8.577579e-08
 9.414641e-07
 2.748672e-07
 8.713677e-08
 0.000000e+00
 0.000000e+00
 -6.632221e-08
 -1.255832e-07
 -1.728403e-07
 -2.061895e-07
 -2.263234e-07
 -2.354307e-07
 -2.361772e-07
 -2.310873e-07
 -2.223043e-07
 -2.115873e-07
 -2.004190e-07
 -1.901430e-07
 -1.820565e-07
 -1.773146e-07
 -1.762465e-07
 -1.761892e-07
 -1.677859e-07
 -1.373403e-07
 -8.737754e-08
 -5.228251e-08
 -7.757670e-08
 -2.384743e-07
 -1.308723e-06
 6.109103e-09
 9.143332e-07
 2.727501e-07
 1.054151e-07
 4.724652e-08
 2.059828e-08
 1.010495e-09
 -2.551411e-08
 -7.665445e-08
 -1.802926e-07
 -1.988980e-07
 9.910675e-08
 3.769087e-07
 4.509875e-07
 9.566951e-07
 -2.979264e-08
 -1.370919e-06
 -2.807156e-07
 -1.209178e-07
 1.741347e-05
 -4.362223e-10
 1.091164e-08
 1.745805e-05
 -4.281158e-09
 2.234172e-08
 5.517290e-09
 0.000000e+00
 0.000000e+00
 -5.106544e-08
 -9.774195e-08
 -1.367004e-07
 -1.662390e-07
 -1.862221e-07
 -1.976161e-07
 -2.019454e-07
 -2.008806e-07
 -1.960200e-07
 -1.888394e-07
 -1.807634e-07
 -1.733290e-07
 -1.684313e-07
 -1.686174e-07
 -1.770950e-07
 -1.955108e-07
 -2.105806e-07
 -1.728922e-07
 -5.546633e-08
 5.380707e-08
 8.316056e-08
 7.839486e-08
 2.609973e-08
 1.746899e-05
 9.588772e-10
 2.548700e-08
 9.576046e-09
 7.079743e-09
 6.808894e-09
 3.691962e-09
 -9.894045e-09
 -5.507621e-08
 -2.101992e-07
 -1.262528e-06
 7.691949e-08
 1.024612e-06
 4.560444e-07
 3.231328e-07
 2.692245e-08
 -2.066389e-07
 3.277592e-08
 8.493604e-07
 7.114079e-08
 -1.056040e-06
 6.540980e-07
 -9.306691e-08
 -1.359526e-06
 -2.691676e-07
 -8.331694e-08
 0.000000e+00
 0.000000e+00
 -4.038991e-08
 -7.790924e-08
 -1.102532e-07
 -1.360291e-07
 -1.547984e-07
 -1.668849e-07
 -1.730912e-07
 -1.744459e-07
 -1.720446e-07
 -1.670032e-07
 -1.605238e-07
 -1.540896e-07
 -1.498705e-07
 -1.515860e-07
 -1.664676e-07
 -2.094407e-07
 -3.064935e-07
 -3.179121e-07
 -1.099054e-08
 2.680213e-07
 2.783541e-07
 3.540293e-07
 9.432486e-07
 6.038706e-09
 -1.325963e-06
 -2.637611e-07
 -9.547475e-08
 -3.474302e-08
 -4.497513e-09
 1.517400e-08
 3.085522e-08
 4.676155e-08
 7.337213e-08
 5.623685e-08
 1.752769e-05
 8.195154e-08
 1.138173e-07
 5.513545e-08
 -5.154635e-08
 -7.641491e-08
 1.131532e-07
 3.231341e-07
 1.834375e-07
 -6.531580e-09
 6.497612e-08
 -7.624357e-08
 -3.051076e-07
 -2.414995e-07
 -9.814497e-08
 0.000000e+00
 0.000000e+00
 -3.268612e-08
 -6.341316e-08
 -9.053987e-08
 -1.129554e-07
 -1.301363e-07
 -1.420686e-07
 -1.490965e-07
 -1.517675e-07
 -1.507203e-07
 -1.466470e-07
 -1.403423e-07
 -1.328665e-07
 -1.258966e-07
 -1.225821e-07
 -1.301473e-07
 -1.695658e-07
 -3.188396e-07
 -1.364809e-06
 -1.927995e-08
 9.292990e-07
 3.501337e-07
 2.842020e-07
 2.843928e-07
 1.781470e-08
 -2.736906e-07
 -2.430601e-07
 -1.226899e-07
 -5.252967e-08
 -6.866717e-09
 3.031511e-08
 7.197264e-08
 1.421170e-07
 3.182790e-07
 9.652836e-07