<VTKFile type="UnstructuredGrid"  version="0.1"   >
<UnstructuredGrid>  
<Piece  NumberOfPoints="     2601"  NumberOfCells="     5000">  
<Points>  
<DataArray  type="Float64"  NumberOfComponents="3"  format="ascii">  
 0.000000 0.000000 0.000000 
 0.020000 0.000000 0.000000 
 0.040000 0.000000 0.000000 
 0.060000 0.000000 0.000000 
 0.080000 0.000000 0.000000 
 0.100000 0.000000 0.000000 
 0.120000 0.000000 0.000000 
 0.140000 0.000000 0.000000 
 0.160000 0.000000 0.000000 
 0.180000 0.000000 0.000000 
 0.200000 0.000000 0.000000 
 0.220000 0.000000 0.000000 
 0.240000 0.000000 0.000000 
 0.260000 0.000000 0.000000 
 0.280000 0.000000 0.000000 
 0.300000 0.000000 0.000000 
 0.320000 0.000000 0.000000 
 0.340000 0.000000 0.000000 
 0.360000 0.000000 0.000000 
 0.380000 0.000000 0.000000 
 0.400000 0.000000 0.000000 
 0.420000 0.000000 0.000000 
 0.440000 0.000000 0.000000 
 0.460000 0.000000 0.000000 
 0.480000 0.000000 0.000000 
 0.500000 0.000000 0.000000 
 0.520000 0.000000 0.000000 
 0.540000 0.000000 0.000000 
 0.560000 0.000000 0.000000 
 0.580000 0.000000 0.000000 
 0.600000 0.000000 0.000000 
 0.620000 0.000000 0.000000 
 0.640000 0.000000 0.000000 
 0.660000 0.000000 0.000000 
 0.680000 0.000000 0.000000 
 0.700000 0.000000 0.000000 
 0.720000 0.000000 0.000000 
 0.740000 0.000000 0.000000 
 0.760000 0.000000 0.000000 
 0.780000 0.000000 0.000000 
 0.800000 0.000000 0.000000 
 0.820000 0.000000 0.000000 
 0.840000 0.000000 0.000000 
 0.860000 0.000000 0.000000 
 0.880000 0.000000 0.000000 
 0.900000 0.000000 0.000000 
 0.920000 0.000000 0.000000 
 0.940000 0.000000 0.000000 
 0.960000 0.000000 0.000000 
 0.980000 0.000000 0.000000 
 1.000000 0.000000 0.000000 
 0.000000 0.020000 0.000000 
 0.020000 0.020000 0.000000 
 0.040000 0.020000 0.000000 
 0.060000 0.020000 0.000000 
 0.080000 0.020000 0.000000 
 0.100000 0.020000 0.000000 
 0.120000 0.020000 0.000000 
 0.140000 0.020000 0.000000 
 0.160000 0.020000 0.000000 
 0.180000 0.020000 0.000000 
 0.200000 0.020000 0.000000 
 0.220000 0.020000 0.000000 
 0.240000 0.020000 0.000000 
 0.260000 0.020000 0.000000 
 0.280000 0.020000 0.000000 
 0.300000 0.020000 0.000000 
 0.320000 0.020000 0.000000 
 0.340000 0.020000 0.000000 
 0.360000 0.020000 0.000000 
 0.380000 0.020000 0.000000 
 0.400000 0.020000 0.000000 
 0.420000 0.020000 0.000000 
 0.440000 0.020000 0.000000 
 0.460000 0.020000 0.000000 
 0.480000 0.020000 0.000000 
 0.500000 0.020000 0.000000 
 0.520000 0.020000 0.000000 
 0.540000 0.020000 0.000000 
 0.560000 0.020000 0.000000 
 0.580000 0.020000 0.000000 
 0.600000 0.020000 0.000000 
 0.620000 0.020000 0.000000 
 0.640000 0.020000 0.000000 
 0.660000 0.020000 0.000000 
 0.680000 0.020000 0.000000 
 0.700000 0.020000 0.000000 
 0.720000 0.020000 0.000000 
 0.740000 0.020000 0.000000 
 0.760000 0.020000 0.000000 
 0.780000 0.020000 0.000000 
 0.800000 0.020000 0.000000 
 0.820000 0.020000 0.000000 
 0.840000 0.020000 0.000000 
 0.860000 0.020000 0.000000 
 0.880000 0.020000 0.000000 
 0.900000 0.020000 0.000000 
 0.920000 0.020000 0.000000 
 0.940000 0.020000 0.000000 
 0.960000 0.020000 0.000000 
 0.980000 0.020000 0.000000 
 1.000000 0.020000 0.000000 
 0.000000 0.040000 0.000000 
 0.020000 0.040000 0.000000 
 0.040000 0.040000 0.000000 
 0.060000 0.040000 0.000000 
 0.080000 0.040000 0.000000 
 0.100000 0.040000 0.000000 
 0.120000 0.040000 0.000000 
 0.140000 0.040000 0.000000 
 0.160000 0.040000 0.000000 
 0.180000 0.040000 0.000000 
 0.200000 0.040000 0.000000 
 0.220000 0.040000 0.000000 
 0.240000 0.040000 0.000000 
 0.260000 0.040000 0.000000 
 0.280000 0.040000 0.000000 
 0.300000 0.040000 0.000000 
 0.320000 0.040000 0.000000 
 0.340000 0.040000 0.000000 
 0.360000 0.040000 0.000000 
 0.380000 0.040000 0.000000 
 0.400000 0.040000 0.000000 
 0.420000 0.040000 0.000000 
 0.440000 0.040000 0.000000 
 0.460000 0.040000 0.000000 
 0.480000 0.040000 0.000000 
 0.500000 0.040000 0.000000 
 0.520000 0.040000 0.000000 
 0.540000 0.040000 0.000000 
 0.560000 0.040000 0.000000 
 0.580000 0.040000 0.000000 
 0.600000 0.040000 0.000000 
 0.620000 0.040000 0.000000 
 0.640000 0.040000 0.000000 
 0.660000 0.040000 0.000000 
 0.680000 0.040000 0.000000 
 0.700000 0.040000 0.000000 
 0.720000 0.040000 0.000000 
 0.740000 0.040000 0.000000 
 0.760000 0.040000 0.000000 
 0.780000 0.040000 0.000000 
 0.800000 0.040000 0.000000 
 0.820000 0.040000 0.000000 
 0.840000 0.040000 0.000000 
 0.860000 0.040000 0.000000 
 0.880000 0.040000 0.000000 
 0.900000 0.040000 0.000000 
 0.920000 0.040000 0.000000 
 0.940000 0.040000 0.000000 
 0.960000 0.040000 0.000000 
 0.980000 0.040000 0.000000 
 1.000000 0.040000 0.000000 
 0.000000 0.060000 0.000000 
 0.020000 0.060000 0.000000 
 0.040000 0.060000 0.000000 
 0.060000 0.060000 0.000000 
 0.080000 0.060000 0.000000 
 0.100000 0.060000 0.000000 
 0.120000 0.060000 0.000000 
 0.140000 0.060000 0.000000 
 0.160000 0.060000 0.000000 
 0.180000 0.060000 0.000000 
 0.200000 0.060000 0.000000 
 0.220000 0.060000 0.000000 
 0.240000 0.060000 0.000000 
 0.260000 0.060000 0.000000 
 0.280000 0.060000 0.000000 
 0.300000 0.060000 0.000000 
 0.320000 0.060000 0.000000 
 0.340000 0.060000 0.000000 
 0.360000 0.060000 0.000000 
 0.380000 0.060000 0.000000 
 0.400000 0.060000 0.000000 
 0.420000 0.060000 0.000000 
 0.440000 0.060000 0.000000 
 0.460000 0.060000 0.000000 
 0.480000 0.060000 0.000000 
 0.500000 0.060000 0.000000 
 0.520000 0.060000 0.000000 
 0.540000 0.060000 0.000000 
 0.560000 0.060000 0.000000 
 0.580000 0.060000 0.000000 
 0.600000 0.060000 0.000000 
 0.620000 0.060000 0.000000 
 0.640000 0.060000 0.000000 
 0.660000 0.060000 0.000000 
 0.680000 0.060000 0.000000 
 0.700000 0.060000 0.000000 
 0.720000 0.060000 0.000000 
 0.740000 0.060000 0.000000 
 0.760000 0.060000 0.000000 
 0.780000 0.060000 0.000000 
 0.800000 0.060000 0.000000 
 0.820000 0.060000 0.000000 
 0.840000 0.060000 0.000000 
 0.860000 0.060000 0.000000 
 0.880000 0.060000 0.000000 
 0.900000 0.060000 0.000000 
 0.920000 0.060000 0.000000 
 0.940000 0.060000 0.000000 
 0.960000 0.060000 0.000000 
 0.980000 0.060000 0.000000 
 1.000000 0.060000 0.000000 
 0.000000 0.080000 0.000000 
 0.020000 0.080000 0.000000 
 0.040000 0.080000 0.000000 
 0.060000 0.080000 0.000000 
 0.080000 0.080000 0.000000 
 0.100000 0.080000 0.000000 
 0.120000 0.080000 0.000000 
 0.140000 0.080000 0.000000 
 0.160000 0.080000 0.000000 
 0.180000 0.080000 0.000000 
 0.200000 0.080000 0.000000 
 0.220000 0.080000 0.000000 
 0.240000 0.080000 0.000000 
 0.260000 0.080000 0.000000 
 0.280000 0.080000 0.000000 
 0.300000 0.080000 0.000000 
 0.320000 0.080000 0.000000 
 0.340000 0.080000 0.000000 
 0.360000 0.080000 0.000000 
 0.380000 0.080000 0.000000 
 0.400000 0.080000 0.000000 
 0.420000 0.080000 0.000000 
 0.440000 0.080000 0.000000 
 0.460000 0.080000 0.000000 
 0.480000 0.080000 0.000000 
 0.500000 0.080000 0.000000 
 0.520000 0.080000 0.000000 
 0.540000 0.080000 0.000000 
 0.560000 0.080000 0.000000 
 0.580000 0.080000 0.000000 
 0.600000 0.080000 0.000000 
 0.620000 0.080000 0.000000 
 0.640000 0.080000 0.000000 
 0.660000 0.080000 0.000000 
 0.680000 0.080000 0.000000 
 0.700000 0.080000 0.000000 
 0.720000 0.080000 0.000000 
 0.740000 0.080000 0.000000 
 0.760000 0.080000 0.000000 
 0.780000 0.080000 0.000000 
 0.800000 0.080000 0.000000 
 0.820000 0.080000 0.000000 
 0.840000 0.080000 0.000000 
 0.860000 0.080000 0.000000 
 0.880000 0.080000 0.000000 
 0.900000 0.080000 0.000000 
 0.920000 0.080000 0.000000 
 0.940000 0.080000 0.000000 
 0.960000 0.080000 0.000000 
 0.980000 0.080000 0.000000 
 1.000000 0.080000 0.000000 
 0.000000 0.100000 0.000000 
 0.020000 0.100000 0.000000 
 0.040000 0.100000 0.000000 
 0.060000 0.100000 0.000000 
 0.080000 0.100000 0.000000 
 0.100000 0.100000 0.000000 
 0.120000 0.100000 0.000000 
 0.140000 0.100000 0.000000 
 0.160000 0.100000 0.000000 
 0.180000 0.100000 0.000000 
 0.200000 0.100000 0.000000 
 0.220000 0.100000 0.000000 
 0.240000 0.100000 0.000000 
 0.260000 0.100000 0.000000 
 0.280000 0.100000 0.000000 
 0.300000 0.100000 0.000000 
 0.320000 0.100000 0.000000 
 0.340000 0.100000 0.000000 
 0.360000 0.100000 0.000000 
 0.380000 0.100000 0.000000 
 0.400000 0.100000 0.000000 
 0.420000 0.100000 0.000000 
 0.440000 0.100000 0.000000 
 0.460000 0.100000 0.000000 
 0.480000 0.100000 0.000000 
 0.500000 0.100000 0.000000 
 0.520000 0.100000 0.000000 
 0.540000 0.100000 0.000000 
 0.560000 0.100000 0.000000 
 0.580000 0.100000 0.000000 
 0.600000 0.100000 0.000000 
 0.620000 0.100000 0.000000 
 0.640000 0.100000 0.000000 
 0.660000 0.100000 0.000000 
 0.680000 0.100000 0.000000 
 0.700000 0.100000 0.000000 
 0.720000 0.100000 0.000000 
 0.740000 0.100000 0.000000 
 0.760000 0.100000 0.000000 
 0.780000 0.100000 0.000000 
 0.800000 0.100000 0.000000 
 0.820000 0.100000 0.000000 
 0.840000 0.100000 0.000000 
 0.860000 0.100000 0.000000 
 0.880000 0.100000 0.000000 
 0.900000 0.100000 0.000000 
 0.920000 0.100000 0.000000 
 0.940000 0.100000 0.000000 
 0.960000 0.100000 0.000000 
 0.980000 0.100000 0.000000 
 1.000000 0.100000 0.000000 
 0.000000 0.120000 0.000000 
 0.020000 0.120000 0.000000 
 0.040000 0.120000 0.000000 
 0.060000 0.120000 0.000000 
 0.080000 0.120000 0.000000 
 0.100000 0.120000 0.000000 
 0.120000 0.120000 0.000000 
 0.140000 0.120000 0.000000 
 0.160000 0.120000 0.000000 
 0.180000 0.120000 0.000000 
 0.200000 0.120000 0.000000 
 0.220000 0.120000 0.000000 
 0.240000 0.120000 0.000000 
 0.260000 0.120000 0.000000 
 0.280000 0.120000 0.000000 
 0.300000 0.120000 0.000000 
 0.320000 0.120000 0.000000 
 0.340000 0.120000 0.000000 
 0.360000 0.120000 0.000000 
 0.380000 0.120000 0.000000 
 0.400000 0.120000 0.000000 
 0.420000 0.120000 0.000000 
 0.440000 0.120000 0.000000 
 0.460000 0.120000 0.000000 
 0.480000 0.120000 0.000000 
 0.500000 0.120000 0.000000 
 0.520000 0.120000 0.000000 
 0.540000 0.120000 0.000000 
 0.560000 0.120000 0.000000 
 0.580000 0.120000 0.000000 
 0.600000 0.120000 0.000000 
[...]
<PointData  Scalars="U"> 
<DataArray  type="Float64"  Name="U"  format="ascii"> 
 0.000000e+00
 0.000000e+00
 0.000000e+00
 0.000000e+00
 0.000000e+00
 0.000000e+00
 0.000000e+00
 0.000000e+00
 0.000000e+00
 0.000000e+00
 0.000000e+00
 0.000000e+00
 0.000000e+00
 0.000000e+00
 0.000000e+00
 0.000000e+00
 0.000000e+00
 0.000000e+00
 0.000000e+00
 0.000000e+00
 0.000000e+00
 0.000000e+00
 0.000000e+00
 0.000000e+00
 0.000000e+00
 0.000000e+00
 0.000000e+00
 0.000000e+00
 0.000000e+00
 0.000000e+00
 0.000000e+00
 0.000000e+00
 0.000000e+00
 0.000000e+00
 0.000000e+00
 0.000000e+00
 0.000000e+00
 0.000000e+00
 0.000000e+00
 0.000000e+00
 0.000000e+00
 0.000000e+00
 0.000000e+00
 0.000000e+00
 0.000000e+00
 0.000000e+00
 0.000000e+00
 0.000000e+00
 0.000000e+00
 0.000000e+00
 0.000000e+00
 0.000000e+00
 -2.463424e-10
 -2.946407e-10
 6.436658e-11
 1.057334e-09
 2.918146e-09
 5.823747e-09
 9.638358e-09
 1.295145e-08
 9.407321e-09
 -2.699517e-08
 -2.050823e-07
 -1.396778e-06
 -2.158163e-07
 8.701260e-07
 4.819224e-07
 1.383094e-07
 1.711003e-05
 -4.490050e-07
 -2.556223e-07
 -3.901674e-07
 -7.346872e-07
 -1.591427e-06
 -3.659746e-06
 -3.864241e-06
 -1.364085e-06
 -7.969066e-07
 -6.535547e-07
 -7.201128e-07
 -1.036516e-06
 -1.986006e-06
 -4.342794e-06
 -5.393419e-06
 -4.985897e-06
 -4.714060e-06
 -2.349103e-06
 -2.512845e-06
 -4.009974e-06
 -3.762212e-06
 -1.143858e-06
 -5.559530e-07
 -3.477513e-07
 -2.439327e-07
 -1.747922e-07
 -1.230016e-07
 -8.391268e-08
 -5.536107e-08
 -3.506892e-08
 -2.041767e-08
 -8.690959e-09
 0.000000e+00
 0.000000e+00
 -6.887404e-10
 -9.933248e-10
 -5.028707e-10
 1.241365e-09
 4.754049e-09
 1.058103e-08
 1.917076e-08
 3.040230e-08
 4.206626e-08
 4.565395e-08
 1.811438e-08
 -1.913326e-07
 1.616193e-05
 5.733727e-10
 1.007208e-06
 7.419689e-07
 -1.576719e-06
 -1.824971e-06
 -2.114374e-08
 -6.795434e-07
 -1.102793e-06
 -1.676653e-06
 -2.274732e-06
 -2.263324e-06
 -1.694808e-06
 -1.261222e-06
 -1.127877e-06
 -1.230285e-06
 -1.592957e-06
 -2.303731e-06
 -3.228323e-06
 -3.787828e-06
 -3.840649e-06
 -3.470938e-06
 -3.050124e-06
 -4.069682e-06
 -2.991730e-06
 -1.562657e-06
 -1.219879e-06
 -8.289988e-07
 -6.167484e-07
 -4.594917e-07
 -3.337642e-07
 -2.335590e-07
 -1.572125e-07
 -1.023937e-07
 -6.450775e-08
 -3.783883e-08
 -1.745083e-08
 0.000000e+00
 0.000000e+00
 -1.510688e-09
 -2.478746e-09
 -2.313841e-09
 -3.356225e-10
 4.267061e-09
 1.250512e-08
 2.578229e-08
 4.651903e-08
 8.038811e-08
 1.454432e-07
 3.138512e-07
 9.549226e-07
 -5.682792e-09
 1.612596e-05
 -2.431815e-07
 -8.203855e-08
 -4.564341e-07
 1.657595e-05
 -1.013732e-06
 -1.064186e-06
 -1.273668e-06
 -1.551869e-06
 -1.781676e-06
 -1.794846e-06
 -1.613127e-06
 -1.433133e-06
 -1.382773e-06
 -1.496059e-06
 -1.784825e-06
 -2.235543e-06
 -2.739163e-06
 -3.090769e-06
 -3.142731e-06
 -2.898488e-06
 -2.594412e-06
 -2.607220e-06
 1.387419e-05
 -2.046476e-06
 -7.256340e-07
 -9.883468e-07
 -8.390249e-07
 -6.456677e-07
 -4.678134e-07
 -3.200573e-07
 -2.085197e-07
 -1.322901e-07
 -8.288644e-08
 -4.933474e-08
 -2.328626e-08
 0.000000e+00
 0.000000e+00
 -2.867129e-09
 -5.081977e-09
 -5.916854e-09
 -4.506516e-09
 2.009517e-10
 9.527359e-09
 2.534567e-08
 5.097280e-08
 9.361580e-08
 1.701562e-07
 3.148688e-07
 5.191514e-07
 8.929257e-07
 -3.183308e-07
 -1.609657e-06
 -3.870732e-07
 2.506109e-07
 -8.298368e-07
 -2.300438e-06
 -1.367693e-06
 -1.354133e-06
 -1.457545e-06
 -1.547552e-06
 -1.560011e-06
 -1.507281e-06
 -1.457716e-06
 -1.473340e-06
 -1.584594e-06
 -1.797105e-06
 -2.091221e-06
 -2.416725e-06
 -2.715032e-06
 -2.790663e-06
 -2.398541e-06
 -1.861841e-06
 -1.111718e-06
 -1.967520e-06
 1.434621e-05
 -1.812151e-06
 -1.366493e-06
 -1.077553e-06
 -8.122513e-07
 -5.709635e-07
 -3.691544e-07
 -2.230204e-07
 -1.349656e-07
 -8.599978e-08
 -5.400114e-08
 -2.668573e-08
 0.000000e+00
 0.000000e+00
 -4.862867e-09
 -9.041702e-09
 -1.173442e-08
 -1.193400e-08
 -8.407011e-09
 2.599679e-10
 1.565801e-08
 3.986739e-08
 7.623611e-08
 1.294736e-07
 1.990433e-07
 2.587278e-07
 1.900379e-07
 -1.884695e-07
 -5.241682e-07
 -4.909193e-07
 -4.563292e-07
 -8.054182e-07
 -1.219745e-06
 -1.324414e-06
 -1.340701e-06
 -1.383770e-06
 -1.405553e-06
 -1.401410e-06
 -1.395498e-06
 -1.410822e-06
 -1.464616e-06
 -1.568000e-06
 -1.721647e-06
 -1.913352e-06
 -2.127890e-06
 -2.401619e-06
 -3.491758e-06
 -2.096807e-06
 -9.840444e-07
 -1.279447e-06
 -8.326534e-07
 -1.854697e-06
 -3.001623e-06
 -1.696671e-06
 -1.298035e-06
 -9.571507e-07
 -6.348126e-07
 -3.602682e-07
 -1.747039e-07
 -9.841763e-08
 -7.429037e-08
 -5.537901e-08
 -2.996279e-08
 0.000000e+00
 0.000000e+00
 -7.522136e-09
 -1.445149e-08
 -2.000493e-08
 -2.305837e-08
 -2.213401e-08
 -1.567429e-08
 -2.629515e-09
 1.696028e-08
 4.170706e-08
 6.797771e-08
 8.562641e-08
 6.879430e-08
 -2.697273e-08
 -2.137012e-07
 -3.943705e-07
 -4.972595e-07
 -6.056476e-07
 -8.069186e-07
 -1.034904e-06
 -1.196420e-06
 -1.300566e-06
 -1.340832e-06
 -1.294628e-06
 -1.243228e-06
 -1.261588e-06
 -1.324601e-06
 -1.404505e-06
 -1.498738e-06
 -1.606665e-06
 -1.717903e-06
 -1.811904e-06
 -1.859235e-06
 -1.904090e-06
 1.557703e-05
 -1.856953e-06
 -1.700798e-06
 -1.385763e-06
 -1.403722e-06
 -1.694689e-06
 -1.708953e-06
 -1.515282e-06
 -1.086380e-06
 -6.532985e-07
 -2.617439e-07
 3.578120e-09
 -1.570181e-08
 -6.426397e-08
 -6.489721e-08
 -3.802464e-08
 0.000000e+00
 0.000000e+00
 -1.074167e-08
 -2.117691e-08
 -3.070811e-08
 -3.813647e-08
 -4.148016e-08
 -3.839040e-08
 -2.768085e-08
 -1.137986e-08
 4.732012e-09
 1.255570e-08
 2.091775e-09
 -3.985716e-08
 -1.253843e-07
 -2.488427e-07
 -3.798868e-07
 -4.991152e-07
 -6.245962e-07
 -7.770857e-07
 -9.454794e-07
 -1.116909e-06
 -1.315309e-06
 -1.413182e-06
 -1.186493e-06
 -9.897746e-07
 -1.087414e-06
 -1.226783e-06
 -1.329696e-06
 -1.413889e-06
 -1.486575e-06
 -1.538601e-06
 -1.539859e-06
 -1.404954e-06
 -7.682532e-07
 -1.676216e-06
 -3.079127e-06
 -3.005488e-06
 -1.509531e-06
 -6.221519e-07
 -1.334758e-06
 -1.590707e-06
 -2.555246e-06
 -1.133328e-06
 -1.036596e-06
 -2.037590e-07
 6.328914e-07
 1.104013e-08
 -1.056798e-07
 -1.002459e-07
 -5.635697e-08
 0.000000e+00
 0.000000e+00
 -1.422033e-08
 -2.870439e-08
 -4.336821e-08
 -5.720184e-08
 -6.742841e-08
 -6.931160e-08
 -5.902836e-08
 -3.987886e-08
 -2.417668e-08
 -2.524377e-08
 -5.027378e-08
 -1.018974e-07
 -1.799405e-07
 -2.784300e-07
 -3.859616e-07
 -4.951852e-07
 -6.086136e-07
 -7.307115e-07
 -8.617262e-07
 -1.013041e-06
 -1.259977e-06
 -2.393348e-06
 -1.131213e-06
 -2.705938e-07
 -9.571471e-07
 -1.168689e-06
 -1.270826e-06
 -1.337884e-06
 -1.384204e-06
 -1.403545e-06
 -1.377710e-06
 -1.283828e-06
 -1.200685e-06
 -1.388584e-06
 -1.593506e-06
 -1.541545e-06
 1.605046e-05
 -1.359449e-06
 -1.316541e-06
 -1.326680e-06
 -1.251741e-06
 1.664798e-05
 -4.586286e-07
 1.709761e-05
 -3.621474e-07
 -2.905178e-07
 -2.403321e-07
 -1.672726e-07
 -8.547180e-08
 0.000000e+00
 0.000000e+00
 -1.738412e-08
 -3.590891e-08
 -5.655650e-08
 -7.945843e-08
 -1.017260e-07
 -1.137045e-07
 -1.011384e-07
 -6.505349e-08
 -3.493648e-08
 -3.834744e-08
 -7.579390e-08
 -1.364535e-07
 -2.127618e-07
 -2.997619e-07
 -3.925402e-07
 -4.873430e-07
 -5.825485e-07
 -6.765617e-07
 -7.656581e-07
 -8.444088e-07
 -9.022803e-07
 -9.958036e-07
 1.640449e-05
 -1.108362e-06
 -1.129804e-06
 -1.192022e-06
 -1.239749e-06
 -1.279753e-06
 -1.306976e-06
 -1.311924e-06
 -1.287735e-06
 -1.238854e-06
 -1.191898e-06
 -1.163414e-06
 -1.030446e-06
 -3.661846e-07
 -1.219595e-06
 -2.476455e-06
 -1.333028e-06
 -1.059169e-06
 -1.271280e-06
 -5.640508e-07
 -2.128638e-07
 -5.893091e-07
 -1.809174e-06
 -6.508285e-07
 -3.926555e-07
 -2.421045e-07
 -1.181418e-07
 0.000000e+00
 0.000000e+00
 -1.939332e-08
 -4.088783e-08
 -6.706490e-08
 -1.011343e-07
 -1.448328e-07
 -1.851754e-07
 -1.733945e-07
 -8.367930e-08
 -5.937789e-09
 -1.586616e-08
 -7.919931e-08
 -1.557744e-07
 -2.347471e-07
 -3.155218e-07
 -3.975744e-07
 -4.791030e-07
 -5.572023e-07
 -6.270876e-07
 -6.796701e-07
 -6.928542e-07
 -5.914703e-07
 -1.305565e-08
 -9.832832e-07
 -2.358641e-06
 -1.344051e-06
 -1.225156e-06
 -1.214820e-06
 -1.233573e-06
 -1.252479e-06
 -1.251077e-06
 -1.226752e-06
 -1.195295e-06
 -1.136908e-06
 -1.010819e-06
 -8.501991e-07
 -7.747649e-07
 -9.983761e-07
 -1.220600e-06
 -1.067298e-06
 -7.426396e-07
 -5.199643e-07
 1.690877e-05
 -6.744801e-07
 -7.657707e-07
 -8.634687e-07
 -6.951163e-07
 -4.674351e-07
 -2.974021e-07
 -1.469641e-07
 0.000000e+00
 0.000000e+00
 -1.938564e-08
 -4.132723e-08
 -6.965283e-08
 -1.116778e-07
 -1.826144e-07
 -3.092145e-07
 -3.534447e-07
 -8.616672e-08
 1.381438e-07
 5.616457e-08
 -7.545669e-08
 -1.737853e-07
 -2.547349e-07
 -3.297698e-07
 -4.029855e-07
 -4.740112e-07
 -5.394615e-07
 -5.933289e-07
 -6.270306e-07
 -6.285808e-07
 -5.855956e-07
 -5.854696e-07
 -8.869494e-07
 -1.226054e-06
 -1.246894e-06
 -1.179263e-06
 -1.166039e-06
 -1.187307e-06
 -1.221251e-06
 -1.219090e-06
 -1.164590e-06
 -1.170379e-06
 -1.170113e-06
 -8.930030e-07
 -6.498197e-07
 -7.179823e-07
 -8.644689e-07
 -9.225174e-07
 -8.029803e-07
 -4.908236e-07
 2.701828e-07
 -6.120630e-07
 -1.961640e-06
 -9.315154e-07
 -7.633110e-07
 -6.309005e-07
 -4.866548e-07
 -3.375529e-07
 -1.743625e-07
 0.000000e+00
 0.000000e+00
 -1.701048e-08
 -3.590078e-08
 -5.976757e-08
 -9.578384e-08
 -1.651487e-07
 -3.466991e-07
 -1.429180e-06
 -1.281841e-07
 7.605019e-07
 9.235725e-08
 -1.087861e-07
 -2.074259e-07
 -2.794051e-07
 -3.451467e-07
 -4.101145e-07
 -4.740594e-07
 -5.328958e-07
 -5.792264e-07
 -6.055860e-07
 -6.127807e-07
 -6.218441e-07
 -6.837620e-07
 -8.353438e-07
 -9.962596e-07
 -1.070086e-06
 -1.080014e-06
 -1.083897e-06
 -1.120881e-06
 -1.227971e-06
 -1.272106e-06
 -1.038511e-06
 -9.543881e-07
 -2.067870e-06
 -8.357854e-07
 2.773142e-08
 -6.412138e-07
 -8.177320e-07
 -8.263679e-07
 -7.092750e-07
 -5.103433e-07
 -3.768139e-07
 -5.868101e-07
 -8.586997e-07
 -8.152909e-07
 -6.762755e-07
 -5.814017e-07
 -5.048962e-07
 -3.960376e-07
 -2.139354e-07
 0.000000e+00
 0.000000e+00
 -1.292428e-08
 -2.603963e-08
 -3.947326e-08
 -5.306399e-08
 -6.530415e-08
 -6.741247e-08
 -1.154621e-07
 1.732102e-05
 -1.642902e-07
 -1.664217e-07
 -2.170860e-07
 -2.612349e-07
 -3.083955e-07
 -3.604992e-07
 -4.176643e-07
 -4.785860e-07
 -5.386468e-07
 -5.864140e-07
 -6.064908e-07
 -6.012821e-07
 -6.073252e-07
 -6.636965e-07
 -7.699536e-07
 -8.839584e-07
 -9.596274e-07
 -9.812614e-07
 -9.696991e-07
 -9.835688e-07
 -1.129667e-06
 -2.193825e-06
 -8.756852e-07
 4.682370e-08
 -6.242948e-07
 1.666414e-05
 -8.621568e-07
 -8.759614e-07
 -9.120540e-07
 -8.617607e-07
 -7.027156e-07
 -5.407706e-07
 -5.006196e-07
 -5.822608e-07
 -6.581093e-07
 -6.274220e-07
 -5.471075e-07
 -5.072270e-07
 -5.537638e-07
 -5.508116e-07
 -2.771858e-07
 0.000000e+00
 0.000000e+00
 -8.639401e-09
 -1.582673e-08
 -1.887493e-08
 -1.096935e-08
 2.863385e-08
 1.753345e-07
 7.926354e-07
 -1.446153e-07
 -1.493330e-06
 -4.591124e-07
 -3.276282e-07
 -3.112545e-07
 -3.322300e-07
 -3.706061e-07
 -4.209839e-07
 -4.827395e-07
 -5.552851e-07
 -6.241868e-07
 -6.403097e-07
 -5.792554e-07
 -5.344946e-07
 -5.854351e-07
 -6.963447e-07
 -8.162411e-07
 -9.090674e-07
 -9.225408e-07
 -8.346499e-07
 -7.370375e-07
 -6.957192e-07
 -7.256470e-07
 1.676479e-05
 -5.453396e-07
 1.102299e-07
 -8.303608e-07
 -2.176812e-06
 -1.158851e-06
 -1.088644e-06
 -1.038254e-06
 -7.019984e-07
 -4.241277e-07
 -4.760998e-07
 -5.873308e-07
 -6.021225e-07
 -4.907338e-07
 -3.663767e-07
 -3.455187e-07
 -4.858253e-07
 -1.557277e-06
 -3.411869e-07
 0.000000e+00
 0.000000e+00
 -5.635562e-09
 -9.202114e-09
 -7.477196e-09
 5.793272e-09
 4.291479e-08
 1.194571e-07
 1.512863e-07
 -1.198654e-07
 -4.323495e-07
 -4.332033e-07
 -3.528552e-07
 -3.304725e-07
 -3.404916e-07
 -3.694030e-07
 -4.131061e-07
 -4.747255e-07
 -5.670510e-07
 -7.154804e-07
 -7.815899e-07
 -5.369261e-07
 -3.376517e-07
 -4.493183e-07
 -6.183549e-07
 -7.699817e-07
 -9.394765e-07
 -9.946032e-07
 -7.036853e-07
 -4.017139e-07
 -2.750914e-07
 3.011616e-07
 -6.047891e-07
 -1.852537e-06
 -7.459138e-07
 -8.368631e-07
 -1.084314e-06
 -1.078163e-06
 -1.106847e-06
 -2.092971e-06
 -7.286267e-07
 1.970944e-07
 -4.634945e-07
 -6.937683e-07
 -7.073872e-07
 -3.647543e-07
 -5.937074e-08
 -5.720810e-08
 -8.358246e-08
 -1.073606e-07
 1.737640e-05
 0.000000e+00
 0.000000e+00
 -4.527838e-09
 -7.407100e-09
 -6.613754e-09
 2.493625e-10
 1.384984e-08
 2.274499e-08
 -1.509932e-08
 -1.362496e-07
 -2.671352e-07
 -3.195418e-07
 -3.205360e-07
 -3.198354e-07
 -3.313085e-07
 -3.544804e-07
 -3.888009e-07
 -4.386423e-07
 -5.232838e-07
 -7.203533e-07
 -1.818004e-06
 -5.317876e-07
 3.420919e-07
 -3.419677e-07
 -5.639805e-07
 -7.049544e-07
 -9.141327e-07
 -1.994654e-06
 -6.594535e-07
 3.088756e-07
 -2.167010e-07
 -2.961294e-07
 -5.558415e-07
 -8.256235e-07
 -8.165784e-07
 -8.006268e-07
 -8.425721e-07
 -8.254666e-07
 -7.533177e-07
 -7.286598e-07
 1.676076e-05
 -6.997165e-07
 -7.102488e-07
 -8.266262e-07
 -1.747539e-06
 -2.769816e-07
 7.255124e-07
 1.771260e-07
 2.279111e-07
 9.106188e-07
 2.005661e-07
 0.000000e+00
 0.000000e+00
 -5.000231e-09
 -9.183082e-09
 -1.192186e-08
 -1.345598e-08
 -1.682201e-08
 -3.114599e-08
 -7.072586e-08
 -1.386551e-07
 -2.101834e-07
 -2.576837e-07
 -2.812148e-07
 -2.955716e-07
 -3.105918e-07
 -3.291266e-07
 -3.508626e-07
 -3.743972e-07
 -3.969972e-07
 -4.088978e-07
 -4.654299e-07
 1.696453e-05
 -5.245069e-07
 -5.261229e-07
 -5.695217e-07
 -5.949917e-07
 -5.993893e-07
 -6.358464e-07
 1.683228e-05
 -5.948202e-07
 -5.185646e-07
 -5.150084e-07
 -5.785865e-07
 -6.632656e-07
 -6.969595e-07
 -7.024087e-07
 -6.916589e-07
 -6.257420e-07
 -4.273313e-07
 2.504084e-07
 -6.365933e-07
 -1.964869e-06
 -9.632432e-07
 -7.644451e-07
 -4.010592e-07
 1.738706e-05
 -3.961038e-08
 7.161421e-09
 1.115759e-07
 2.526753e-07
 1.794788e-07
 0.000000e+00
 0.000000e+00
 -6.310108e-09
 -1.251340e-08
 -1.883957e-08
 -2.639656e-08
 -3.795186e-08
 -5.822208e-08
 -9.161858e-08
 -1.367143e-07
 -1.837567e-07
 -2.222390e-07
 -2.495301e-07
 -2.693937e-07
 -2.859141e-07
 -3.004436e-07
 -3.109950e-07
 -3.104068e-07
 -2.772286e-07
 -1.353116e-07
 4.795956e-07
 -4.566998e-07
 -1.799421e-06
 -7.506541e-07
 -5.878814e-07
 -5.009511e-07
 -3.345729e-07
 2.976148e-07
 -6.188217e-07
 -1.930560e-06
 -8.362012e-07
 -6.358882e-07
 -5.747495e-07
 -5.786292e-07
 -5.989482e-07
 -6.095060e-07
 -5.950710e-07
 -5.344029e-07
 -4.084411e-07
 -3.097261e-07
 -5.149283e-07
 -7.859305e-07
 -8.243695e-07
 -1.563527e-06
 5.110779e-07
 6.013232e-07
 -1.282470e-06
 -3.094107e-07
 -1.197816e-07
 -1.867981e-08
 1.283471e-08
 0.000000e+00
 0.000000e+00
 -7.776774e-09
 -1.585747e-08
 -2.480821e-08
 -3.573474e-08
 -5.045042e-08
 -7.113624e-08
 -9.903264e-08
 -1.326546e-07
 -1.676043e-07
 -1.991767e-07
 -2.251880e-07
 -2.460286e-07
 -2.627027e-07
 -2.750270e-07
 -2.804641e-07
 -2.726410e-07
 -2.387652e-07
 -1.627126e-07
 -1.280656e-07
 -3.923116e-07
 -6.922256e-07
 -6.715024e-07
 -5.537831e-07
 -4.653704e-07
 -3.650638e-07
 -3.240912e-07
 -5.955306e-07
 -9.035425e-07
 -8.491676e-07
 -6.405988e-07
 -5.052130e-07
 -4.828491e-07
 -5.125754e-07
 -5.397601e-07
 -5.441750e-07
 -5.145390e-07
 -4.497196e-07
 -3.942309e-07
 -4.121101e-07
 -4.457665e-07
 -3.735960e-07
 -2.337879e-07
 1.738012e-05
 -2.347056e-07
 -4.368497e-07
 -4.040647e-07
 -2.933769e-07
 -2.118382e-07
 -1.068348e-07
 0.000000e+00
 0.000000e+00
 -8.982198e-09
 -1.842299e-08
 -2.893199e-08
 -4.137620e-08
 -5.684588e-08
 -7.633865e-08
 -1.001333e-07
 -1.272069e-07
 -1.553514e-07
 -1.821674e-07
 -2.061025e-07
 -2.266075e-07
 -2.434571e-07
 -2.559019e-07
 -2.621250e-07
 -2.593783e-07
 -2.464128e-07
 -2.342273e-07
 -2.647284e-07
 -3.744452e-07
 -4.892666e-07
 -5.193721e-07
 -4.893390e-07
 -4.483122e-07
 -4.231735e-07
 -4.607949e-07
 -6.101581e-07
 -8.237512e-07
 -8.762992e-07
 -5.665869e-07
 -2.973026e-07
 -3.411558e-07
 -4.356888e-07
 -4.932315e-07
 -5.275424e-07
 -5.387087e-07
 -4.917001e-07
 -3.759095e-07
 -2.796866e-07
 -2.321878e-07
 -8.104844e-08
 6.162809e-07
 -1.852019e-07
 -1.481178e-06
 -4.911875e-07
 -3.980168e-07
 -4.372390e-07
 -4.497366e-07
 -2.180661e-07
 0.000000e+00
 0.000000e+00
 -9.755173e-09
 -1.996676e-08
 -3.116594e-08
 -4.398739e-08
 -5.909945e-08
 -7.700040e-08
 -9.772707e-08
 -1.206543e-07
 -1.445988e-07
 -1.682324e-07
 -1.905041e-07
 -2.107449e-07
 -2.284236e-07
 -2.427985e-07
 -2.528175e-07
 -2.577865e-07
 -2.596580e-07
 -2.670007e-07
 -2.946387e-07
 -3.470356e-07
 -4.006054e-07
 -4.278896e-07
 -4.288378e-07
 -4.207978e-07
 -4.238359e-07
 -4.611835e-07
 -5.570429e-07
 -7.658667e-07
 -1.849817e-06
 -5.253510e-07
 3.973324e-07
 -2.347605e-07
 -4.002565e-07
 -4.675291e-07
 -5.255413e-07
 -6.223950e-07
 -6.300321e-07
 -3.253587e-07
 -6.242322e-08
 -9.785270e-08
 -1.782106e-07
 -1.727076e-07
 -1.450462e-07
 -2.102180e-07
 -2.698581e-07
 -2.978210e-07
 -4.390016e-07
 -1.510528e-06
 -3.115011e-07
 0.000000e+00
 0.000000e+00
 -1.008543e-08
 -2.054295e-08
 -3.178735e-08
 -4.428278e-08
 -5.848507e-08
 -7.471651e-08
 -9.301688e-08
 -1.130599e-07
 -1.342139e-07
 -1.557342e-07
 -1.769628e-07
 -1.974029e-07
 -2.166231e-07
 -2.340658e-07
 -2.489287e-07
 -2.604489e-07
 -2.690537e-07
 -2.780899e-07
 -2.933646e-07
 -3.174942e-07
 -3.446187e-07
 -3.655549e-07
 -3.770862e-07
 -3.830664e-07
 -3.901482e-07
 -4.033317e-07
 -4.201680e-07
 -4.234751e-07
 -4.610315e-07
 1.699833e-05
 -4.561060e-07
 -4.231959e-07
 -4.370105e-07
 -4.475906e-07
 -4.838605e-07
 -6.259872e-07
 -1.663719e-06
 -3.140119e-07
 6.241055e-07
 -1.118525e-08
 -2.843970e-07
 -1.393096e-06
 -1.698847e-07
 6.424506e-07
 -1.022754e-08
 -1.226011e-07
 -9.985619e-08
 -9.456735e-08
 1.739050e-05
 0.000000e+00
 0.000000e+00
 -1.005172e-08
 -2.034238e-08
 -3.115846e-08
 -4.284997e-08
 -5.579260e-08
 -7.029820e-08
 -8.650898e-08
 -1.043351e-07
 -1.234815e-07
 -1.435596e-07
 -1.642240e-07
 -1.852582e-07
 -2.065493e-07
 -2.278936e-07
 -2.485506e-07
 -2.665634e-07
 -2.786226e-07
 -2.824460e-07
 -2.814180e-07
 -2.842472e-07
 -2.961577e-07
 -3.139530e-07
 -3.313061e-07
 -3.440225e-07
 -3.491300e-07
 -3.395048e-07
 -2.926071e-07
 -1.309789e-07
 5.088130e-07
 -4.005230e-07
 -1.717591e-06
 -6.476725e-07
 -4.745375e-07
 -4.079256e-07
 -3.661736e-07
 -3.181899e-07
 -3.120069e-07
 1.718638e-05
 -2.280916e-07
 -1.515484e-07
 -1.162093e-07
 -1.376924e-07
 1.730294e-05
 -1.727306e-07
 -1.201131e-07
 -4.329469e-08
 1.817490e-07
 9.188705e-07
 2.148041e-07
 0.000000e+00
 0.000000e+00
 -9.787943e-09
 -1.962855e-08
 -2.966007e-08
 -4.015596e-08
 -5.150766e-08
 -6.413325e-08
 -7.834893e-08
 -9.427360e-08
 -1.118261e-07
 -1.308233e-07
 -1.511369e-07
 -1.728488e-07
 -1.963423e-07
 -2.222000e-07
 -2.505157e-07
 -2.786907e-07
 -2.975192e-07
 -2.928941e-07
 -2.648836e-07
 -2.401153e-07
 -2.413363e-07
 -2.633680e-07
 -2.904729e-07
 -3.119948e-07
 -3.207532e-07
 -3.064924e-07
 -2.527821e-07
 -1.451065e-07
 -7.609276e-08
 -3.123213e-07
 -5.928383e-07
 -5.594110e-07
 -4.352208e-07
 -3.492359e-07
 -2.522699e-07
 -5.167463e-08
 6.260867e-07
 -2.373804e-07
 -1.492823e-06
 -3.303964e-07
 3.234174e-08
 7.423432e-07
 -1.424820e-07
 -1.441764e-06
 -3.327341e-07
 -7.773355e-08
 1.317189e-07
 3.001276e-07
 2.132622e-07
 0.000000e+00
 0.000000e+00
 -9.486766e-09
 -1.874832e-08
 -2.771923e-08
 -3.661182e-08
 -4.593086e-08
 -5.634248e-08
 -6.844350e-08
 -8.256558e-08
 -9.873521e-08
 -1.168074e-07
 -1.367061e-07
 -1.587043e-07
 -1.837295e-07
 -2.136803e-07
 -2.514417e-07
 -2.986461e-07
 -3.422209e-07
 -3.330155e-07
 -2.441633e-07
 -1.636003e-07
 -1.642985e-07
 -2.091665e-07
 -2.558836e-07
 -2.921060e-07
 -3.141584e-07
 -3.123274e-07
 -2.724832e-07
 -2.060743e-07
 -1.821412e-07
 -2.612551e-07
 -3.660035e-07
 -3.926752e-07
 -3.564609e-07
 -2.975607e-07
 -2.156372e-07
 -9.083611e-08
 1.161952e-09
 -1.893577e-07
 -3.965007e-07
 -2.657871e-07
 -2.252675e-08
 1.090197e-07
 -9.542109e-08
 -3.472923e-07
 -2.750543e-07
 -9.937382e-08
 3.348234e-08
 1.076753e-07
 8.640949e-08
 0.000000e+00
 0.000000e+00
 -9.438437e-09
 -1.820796e-08
 -2.590998e-08
 -3.267140e-08
 -3.924891e-08
 -4.681317e-08
 -5.646090e-08
 -6.877851e-08
 -8.375238e-08
 -1.010228e-07
 -1.202836e-07
 -1.416977e-07
 -1.663941e-07
 -1.973602e-07
 -2.414277e-07
 -3.135035e-07
 -4.400321e-07