<VTKFile type="UnstructuredGrid"  version="0.1"   >
<UnstructuredGrid>  
<Piece  NumberOfPoints="     2601"  NumberOfCells="     5000">  
<Points>  
<DataArray  type="Float64"  NumberOfComponents="3"  format="ascii">  
 0.000000 0.000000 0.000000 
 0.020000 0.000000 0.000000 
 0.040000 0.000000 0.000000 
 0.060000 0.000000 0.000000 
 0.080000 0.000000 0.000000 
 0.100000 0.000000 0.000000 
 0.120000 0.000000 0.000000 
 0.140000 0.000000 0.000000 
 0.160000 0.000000 0.000000 
 0.180000 0.000000 0.000000 
 0.200000 0.000000 0.000000 
 0.220000 0.000000 0.000000 
 0.240000 0.000000 0.000000 
 0.260000 0.000000 0.000000 
 0.280000 0.000000 0.000000 
 0.300000 0.000000 0.000000 
 0.320000 0.000000 0.000000 
 0.340000 0.000000 0.000000 
 0.360000 0.000000 0.000000 
 0.380000 0.000000 0.000000 
 0.400000 0.000000 0.000000 
 0.420000 0.000000 0.000000 
 0.440000 0.000000 0.000000 
 0.460000 0.000000 0.000000 
 0.480000 0.000000 0.000000 
 0.500000 0.000000 0.000000 
 0.520000 0.000000 0.000000 
 0.540000 0.000000 0.000000 
 0.560000 0.000000 0.000000 
 0.580000 0.000000 0.000000 
 0.600000 0.000000 0.000000 
 0.620000 0.000000 0.000000 
 0.640000 0.000000 0.000000 
 0.660000 0.000000 0.000000 
 0.680000 0.000000 0.000000 
 0.700000 0.000000 0.000000 
 0.720000 0.000000 0.000000 
 0.740000 0.000000 0.000000 
 0.760000 0.000000 0.000000 
 0.780000 0.000000 0.000000 
 0.800000 0.000000 0.000000 
 0.820000 0.000000 0.000000 
 0.840000 0.000000 0.000000 
 0.860000 0.000000 0.000000 
 0.880000 0.000000 0.000000 
 0.900000 0.000000 0.000000 
 0.920000 0.000000 0.000000 
 0.940000 0.000000 0.000000 
 0.960000 0.000000 0.000000 
 0.980000 0.000000 0.000000 
 1.000000 0.000000 0.000000 
 0.000000 0.020000 0.000000 
 0.020000 0.020000 0.000000 
 0.040000 0.020000 0.000000 
 0.060000 0.020000 0.000000 
 0.080000 0.020000 0.000000 
 0.100000 0.020000 0.000000 
 0.120000 0.020000 0.000000 
 0.140000 0.020000 0.000000 
 0.160000 0.020000 0.000000 
 0.180000 0.020000 0.000000 
 0.200000 0.020000 0.000000 
 0.220000 0.020000 0.000000 
 0.240000 0.020000 0.000000 
 0.260000 0.020000 0.000000 
 0.280000 0.020000 0.000000 
 0.300000 0.020000 0.000000 
 0.320000 0.020000 0.000000 
 0.340000 0.020000 0.000000 
 0.360000 0.020000 0.000000 
 0.380000 0.020000 0.000000 
 0.400000 0.020000 0.000000 
 0.420000 0.020000 0.000000 
 0.440000 0.020000 0.000000 
 0.460000 0.020000 0.000000 
 0.480000 0.020000 0.000000 
 0.500000 0.020000 0.000000 
 0.520000 0.020000 0.000000 
 0.540000 0.020000 0.000000 
 0.560000 0.020000 0.000000 
 0.580000 0.020000 0.000000 
 0.600000 0.020000 0.000000 
 0.620000 0.020000 0.000000 
 0.640000 0.020000 0.000000 
 0.660000 0.020000 0.000000 
 0.680000 0.020000 0.000000 
 0.700000 0.020000 0.000000 
 0.720000 0.020000 0.000000 
 0.740000 0.020000 0.000000 
 0.760000 0.020000 0.000000 
 0.780000 0.020000 0.000000 
 0.800000 0.020000 0.000000 
 0.820000 0.020000 0.000000 
 0.840000 0.020000 0.000000 
 0.860000 0.020000 0.000000 
 0.880000 0.020000 0.000000 
 0.900000 0.020000 0.000000 
 0.920000 0.020000 0.000000 
 0.940000 0.020000 0.000000 
 0.960000 0.020000 0.000000 
 0.980000 0.020000 0.000000 
 1.000000 0.020000 0.000000 
 0.000000 0.040000 0.000000 
 0.020000 0.040000 0.000000 
 0.040000 0.040000 0.000000 
 0.060000 0.040000 0.000000 
 0.080000 0.040000 0.000000 
 0.100000 0.040000 0.000000 
 0.120000 0.040000 0.000000 
 0.140000 0.040000 0.000000 
 0.160000 0.040000 0.000000 
 0.180000 0.040000 0.000000 
 0.200000 0.040000 0.000000 
 0.220000 0.040000 0.000000 
 0.240000 0.040000 0.000000 
 0.260000 0.040000 0.000000 
 0.280000 0.040000 0.000000 
 0.300000 0.040000 0.000000 
 0.320000 0.040000 0.000000 
 0.340000 0.040000 0.000000 
 0.360000 0.040000 0.000000 
 0.380000 0.040000 0.000000 
 0.400000 0.040000 0.000000 
 0.420000 0.040000 0.000000 
 0.440000 0.040000 0.000000 
 0.460000 0.040000 0.000000 
 0.480000 0.040000 0.000000 
 0.500000 0.040000 0.000000 
 0.520000 0.040000 0.000000 
 0.540000 0.040000 0.000000 
 0.560000 0.040000 0.000000 
 0.580000 0.040000 0.000000 
 0.600000 0.040000 0.000000 
 0.620000 0.040000 0.000000 
 0.640000 0.040000 0.000000 
 0.660000 0.040000 0.000000 
 0.680000 0.040000 0.000000 
 0.700000 0.040000 0.000000 
 0.720000 0.040000 0.000000 
 0.740000 0.040000 0.000000 
 0.760000 0.040000 0.000000 
 0.780000 0.040000 0.000000 
 0.800000 0.040000 0.000000 
 0.820000 0.040000 0.000000 
 0.840000 0.040000 0.000000 
 0.860000 0.040000 0.000000 
 0.880000 0.040000 0.000000 
 0.900000 0.040000 0.000000 
 0.920000 0.040000 0.000000 
 0.940000 0.040000 0.000000 
 0.960000 0.040000 0.000000 
 0.980000 0.040000 0.000000 
 1.000000 0.040000 0.000000 
 0.000000 0.060000 0.000000 
 0.020000 0.060000 0.000000 
 0.040000 0.060000 0.000000 
 0.060000 0.060000 0.000000 
 0.080000 0.060000 0.000000 
 0.100000 0.060000 0.000000 
 0.120000 0.060000 0.000000 
 0.140000 0.060000 0.000000 
 0.160000 0.060000 0.000000 
 0.180000 0.060000 0.000000 
 0.200000 0.060000 0.000000 
 0.220000 0.060000 0.000000 
 0.240000 0.060000 0.000000 
 0.260000 0.060000 0.000000 
 0.280000 0.060000 0.000000 
 0.300000 0.060000 0.000000 
 0.320000 0.060000 0.000000 
 0.340000 0.060000 0.000000 
 0.360000 0.060000 0.000000 
 0.380000 0.060000 0.000000 
 0.400000 0.060000 0.000000 
 0.420000 0.060000 0.000000 
 0.440000 0.060000 0.000000 
 0.460000 0.060000 0.000000 
 0.480000 0.060000 0.000000 
 0.500000 0.060000 0.000000 
 0.520000 0.060000 0.000000 
 0.540000 0.060000 0.000000 
 0.560000 0.060000 0.000000 
 0.580000 0.060000 0.000000 
 0.600000 0.060000 0.000000 
 0.620000 0.060000 0.000000 
 0.640000 0.060000 0.000000 
 0.660000 0.060000 0.000000 
 0.680000 0.060000 0.000000 
 0.700000 0.060000 0.000000 
 0.720000 0.060000 0.000000 
 0.740000 0.060000 0.000000 
 0.760000 0.060000 0.000000 
 0.780000 0.060000 0.000000 
 0.800000 0.060000 0.000000 
 0.820000 0.060000 0.000000 
 0.840000 0.060000 0.000000 
 0.860000 0.060000 0.000000 
 0.880000 0.060000 0.000000 
 0.900000 0.060000 0.000000 
 0.920000 0.060000 0.000000 
 0.940000 0.060000 0.000000 
 0.960000 0.060000 0.000000 
 0.980000 0.060000 0.000000 
 1.000000 0.060000 0.000000 
 0.000000 0.080000 0.000000 
 0.020000 0.080000 0.000000 
 0.040000 0.080000 0.000000 
 0.060000 0.080000 0.000000 
 0.080000 0.080000 0.000000 
 0.100000 0.080000 0.000000 
 0.120000 0.080000 0.000000 
 0.140000 0.080000 0.000000 
 0.160000 0.080000 0.000000 
 0.180000 0.080000 0.000000 
 0.200000 0.080000 0.000000 
 0.220000 0.080000 0.000000 
 0.240000 0.080000 0.000000 
 0.260000 0.080000 0.000000 
 0.280000 0.080000 0.000000 
 0.300000 0.080000 0.000000 
 0.320000 0.080000 0.000000 
 0.340000 0.080000 0.000000 
 0.360000 0.080000 0.000000 
 0.380000 0.080000 0.000000 
 0.400000 0.080000 0.000000 
 0.420000 0.080000 0.000000 
 0.440000 0.080000 0.000000 
 0.460000 0.080000 0.000000 
 0.480000 0.080000 0.000000 
 0.500000 0.080000 0.000000 
 0.520000 0.080000 0.000000 
 0.540000 0.080000 0.000000 
 0.560000 0.080000 0.000000 
 0.580000 0.080000 0.000000 
 0.600000 0.080000 0.000000 
 0.620000 0.080000 0.000000 
 0.640000 0.080000 0.000000 
 0.660000 0.080000 0.000000 
 0.680000 0.080000 0.000000 
 0.700000 0.080000 0.000000 
 0.720000 0.080000 0.000000 
 0.740000 0.080000 0.000000 
 0.760000 0.080000 0.000000 
 0.780000 0.080000 0.000000 
 0.800000 0.080000 0.000000 
 0.820000 0.080000 0.000000 
 0.840000 0.080000 0.000000 
 0.860000 0.080000 0.000000 
 0.880000 0.080000 0.000000 
 0.900000 0.080000 0.000000 
 0.920000 0.080000 0.000000 
 0.940000 0.080000 0.000000 
 0.960000 0.080000 0.000000 
 0.980000 0.080000 0.000000 
 1.000000 0.080000 0.000000 
 0.000000 0.100000 0.000000 
 0.020000 0.100000 0.000000 
 0.040000 0.100000 0.000000 
 0.060000 0.100000 0.000000 
 0.080000 0.100000 0.000000 
 0.100000 0.100000 0.000000 
 0.120000 0.100000 0.000000 
 0.140000 0.100000 0.000000 
 0.160000 0.100000 0.000000 
 0.180000 0.100000 0.000000 
 0.200000 0.100000 0.000000 
 0.220000 0.100000 0.000000 
 0.240000 0.100000 0.000000 
 0.260000 0.100000 0.000000 
 0.280000 0.100000 0.000000 
 0.300000 0.100000 0.000000 
 0.320000 0.100000 0.000000 
 0.340000 0.100000 0.000000 
 0.360000 0.100000 0.000000 
 0.380000 0.100000 0.000000 
 0.400000 0.100000 0.000000 
 0.420000 0.100000 0.000000 
 0.440000 0.100000 0.000000 
 0.460000 0.100000 0.000000 
 0.480000 0.100000 0.000000 
 0.500000 0.100000 0.000000 
 0.520000 0.100000 0.000000 
 0.540000 0.100000 0.000000 
 0.560000 0.100000 0.000000 
 0.580000 0.100000 0.000000 
 0.600000 0.100000 0.000000 
 0.620000 0.100000 0.000000 
 0.640000 0.100000 0.000000 
 0.660000 0.100000 0.000000 
 0.680000 0.100000 0.000000 
 0.700000 0.100000 0.000000 
 0.720000 0.100000 0.000000 
 0.740000 0.100000 0.000000 
 0.760000 0.100000 0.000000 
 0.780000 0.100000 0.000000 
 0.800000 0.100000 0.000000 
 0.820000 0.100000 0.000000 
 0.840000 0.100000 0.000000 
 0.860000 0.100000 0.000000 
 0.880000 0.100000 0.000000 
 0.900000 0.100000 0.000000 
 0.920000 0.100000 0.000000 
 0.940000 0.100000 0.000000 
 0.960000 0.100000 0.000000 
 0.980000 0.100000 0.000000 
 1.000000 0.100000 0.000000 
 0.000000 0.120000 0.000000 
 0.020000 0.120000 0.000000 
 0.040000 0.120000 0.000000 
 0.060000 0.120000 0.000000 
 0.080000 0.120000 0.000000 
 0.100000 0.120000 0.000000 
 0.120000 0.120000 0.000000 
 0.140000 0.120000 0.000000 
 0.160000 0.120000 0.000000 
 0.180000 0.120000 0.000000 
 0.200000 0.120000 0.000000 
 0.220000 0.120000 0.000000 
 0.240000 0.120000 0.000000 
 0.260000 0.120000 0.000000 
 0.280000 0.120000 0.000000 
 0.300000 0.120000 0.000000 
 0.320000 0.120000 0.000000 
 0.340000 0.120000 0.000000 
 0.360000 0.120000 0.000000 
 0.380000 0.120000 0.000000 
 0.400000 0.120000 0.000000 
 0.420000 0.120000 0.000000 
 0.440000 0.120000 0.000000 
 0.460000 0.120000 0.000000 
 0.480000 0.120000 0.000000 
 0.500000 0.120000 0.000000 
 0.520000 0.120000 0.000000 
 0.540000 0.120000 0.000000 
 0.560000 0.120000 0.000000 
 0.580000 0.120000 0.000000 
 0.600000 0.120000 0.000000 
[...]
<PointData  Scalars="U"> 
<DataArray  type="Float64"  Name="U"  format="ascii"> 
 0.000000e+00
 0.000000e+00
 0.000000e+00
 0.000000e+00
 0.000000e+00
 0.000000e+00
 0.000000e+00
 0.000000e+00
 0.000000e+00
 0.000000e+00
 0.000000e+00
 0.000000e+00
 0.000000e+00
 0.000000e+00
 0.000000e+00
 0.000000e+00
 0.000000e+00
 0.000000e+00
 0.000000e+00
 0.000000e+00
 0.000000e+00
 0.000000e+00
 0.000000e+00
 0.000000e+00
 0.000000e+00
 0.000000e+00
 0.000000e+00
 0.000000e+00
 0.000000e+00
 0.000000e+00
 0.000000e+00
 0.000000e+00
 0.000000e+00
 0.000000e+00
 0.000000e+00
 0.000000e+00
 0.000000e+00
 0.000000e+00
 0.000000e+00
 0.000000e+00
 0.000000e+00
 0.000000e+00
 0.000000e+00
 0.000000e+00
 0.000000e+00
 0.000000e+00
 0.000000e+00
 0.000000e+00
 0.000000e+00
 0.000000e+00
 0.000000e+00
 0.000000e+00
 1.711740e-05
 -4.917153e-07
 -2.875298e-07
 4.017685e-08
 1.924110e-07
 1.739963e-05
 -3.132664e-07
 -1.978891e-07
 -9.796204e-08
 -1.036451e-07
 -1.801160e-07
 -3.079817e-07
 -5.703835e-07
 -1.337140e-06
 -3.537072e-06
 1.332775e-05
 -1.746009e-06
 -1.141744e-06
 -1.732396e-06
 -3.718898e-06
 -3.862052e-06
 -1.302204e-06
 -6.728607e-07
 -4.640595e-07
 -4.558386e-07
 -4.454480e-07
 -1.665027e-07
 8.111419e-08
 6.740565e-08
 2.663228e-08
 9.327867e-09
 -3.846349e-09
 -1.451660e-08
 -2.170862e-08
 -2.636000e-08
 -3.001063e-08
 -3.381669e-08
 -3.823187e-08
 -4.295320e-08
 -4.723470e-08
 -5.064460e-08
 -5.269458e-08
 -4.872190e-08
 -2.816881e-08
 9.651098e-09
 4.221498e-08
 5.000079e-08
 3.781739e-08
 1.772636e-08
 0.000000e+00
 0.000000e+00
 -5.318471e-07
 -1.890989e-06
 -7.246696e-07
 1.189075e-08
 1.027786e-06
 -3.406001e-08
 -1.582098e-06
 -3.765244e-07
 -5.800658e-08
 -1.445533e-07
 -3.243705e-07
 -5.137767e-07
 -7.781585e-07
 -1.200774e-06
 -1.398385e-06
 -3.576235e-06
 -3.276014e-06
 -1.150580e-06
 -1.876258e-06
 -2.383085e-06
 -2.258225e-06
 -1.573986e-06
 -1.016930e-06
 -7.504549e-07
 -7.476447e-07
 -1.737709e-06
 -3.877813e-07
 5.827825e-07
 7.532307e-08
 3.305238e-08
 1.817890e-08
 -1.035435e-08
 -3.293356e-08
 -4.602344e-08
 -5.363877e-08
 -5.974452e-08
 -6.688899e-08
 -7.606342e-08
 -8.641512e-08
 -9.547378e-08
 -1.019925e-07
 -1.097311e-07
 -1.155085e-07
 -7.921928e-08
 2.529261e-08
 1.148861e-07
 1.208548e-07
 8.158086e-08
 3.826103e-08
 0.000000e+00
 0.000000e+00
 -4.509769e-07
 -9.136499e-07
 -1.884480e-06
 -2.571062e-07
 1.039334e-06
 2.013739e-07
 -1.453130e-06
 -3.371532e-07
 5.344587e-07
 -1.831203e-07
 -4.708771e-07
 -6.553708e-07
 -7.906316e-07
 -9.604125e-07
 -1.221015e-06
 -1.690845e-06
 1.546270e-05
 -1.974940e-06
 -1.920065e-06
 -1.945068e-06
 -1.786727e-06
 -1.441604e-06
 -1.082220e-06
 -8.126374e-07
 -6.330928e-07
 -5.890352e-07
 1.684756e-05
 -5.734665e-07
 -2.069081e-07
 6.685137e-08
 4.327960e-08
 -2.728123e-08
 -6.164896e-08
 -7.566165e-08
 -8.217274e-08
 -8.819179e-08
 -9.762020e-08
 -1.123662e-07
 -1.312696e-07
 -1.474298e-07
 -1.523199e-07
 -1.598132e-07
 -2.229012e-07
 -2.271998e-07
 5.992445e-08
 2.980363e-07
 2.325517e-07
 1.229498e-07
 5.180615e-08
 0.000000e+00
 0.000000e+00
 -3.878885e-07
 -6.283413e-07
 -5.427781e-07
 1.623732e-05
 1.479296e-07
 9.249202e-07
 2.560575e-08
 1.719214e-05
 -3.830224e-07
 -4.700146e-07
 -6.930604e-07
 -8.655097e-07
 -7.486460e-07
 -6.622206e-07
 -7.844963e-07
 -4.778422e-07
 -1.608436e-06
 -3.007088e-06
 -1.944633e-06
 -1.730286e-06
 -1.541590e-06
 -1.301237e-06
 -1.038653e-06
 -7.794334e-07
 -4.687150e-07
 2.445359e-07
 -7.284243e-07
 -3.023495e-06
 -5.615555e-07
 5.742224e-07
 3.049574e-08
 -8.430760e-08
 -1.092404e-07
 -1.118265e-07
 -1.107340e-07
 -1.129557e-07
 -1.226015e-07
 -1.434463e-07
 -1.778205e-07
 -2.142815e-07
 -2.089886e-07
 -1.540151e-07
 -2.139055e-07
 -1.249349e-06
 5.964009e-08
 9.557615e-07
 3.024432e-07
 1.216687e-07
 4.700756e-08
 0.000000e+00
 0.000000e+00
 -2.848349e-07
 -1.387508e-06
 4.807629e-07
 7.149725e-07
 1.652546e-05
 5.786681e-08
 6.556368e-07
 -3.549202e-07
 -1.696134e-06
 -6.937369e-07
 -7.893138e-07
 -1.946120e-06
 -7.532497e-07
 4.209531e-08
 -6.736773e-07
 -9.417444e-07
 -1.356098e-06
 -1.714533e-06
 -1.691458e-06
 -1.529195e-06
 -1.365522e-06
 -1.180842e-06
 -9.795178e-07
 -7.683465e-07
 -5.404288e-07
 -3.706045e-07
 -4.895411e-07
 -6.849700e-07
 1.690599e-05
 -3.720794e-07
 -2.460909e-07
 -2.059900e-07
 -1.736284e-07
 -1.502294e-07
 -1.356174e-07
 -1.303075e-07
 -1.363636e-07
 -1.596222e-07
 -2.140304e-07
 -3.248800e-07
 -3.515355e-07
 -5.904039e-08
 2.134458e-07
 1.525559e-07
 1.754485e-05
 5.801190e-08
 7.204861e-08
 4.174379e-08
 2.038957e-08
 0.000000e+00
 0.000000e+00
 8.911239e-08
 1.011320e-08
 1.644727e-05
 5.683547e-07
 4.994265e-07
 -1.235514e-06
 -3.309697e-07
 -5.258109e-07
 -5.800267e-07
 -4.055019e-07
 -4.414379e-07
 -6.144961e-07
 1.671769e-05
 -8.495283e-07
 -9.212750e-07
 -1.062274e-06
 -1.241115e-06
 -1.384784e-06
 -1.405429e-06
 -1.331841e-06
 -1.215825e-06
 -1.077272e-06
 -9.265672e-07
 -7.747808e-07
 -6.363518e-07
 -5.228263e-07
 -3.455580e-07
 3.625231e-07
 -4.190860e-07
 -1.642774e-06
 -5.234792e-07
 -3.180811e-07
 -2.291432e-07
 -1.799406e-07
 -1.514193e-07
 -1.368637e-07
 -1.341946e-07
 -1.471038e-07
 -1.940510e-07
 -3.502818e-07
 -1.396224e-06
 -2.226660e-08
 1.062462e-06
 1.092926e-06
 6.878167e-08
 -1.258372e-06
 -1.944302e-07
 -4.249370e-08
 -6.597249e-09
 0.000000e+00
 0.000000e+00
 5.225696e-07
 1.345031e-06
 1.748316e-07
 1.500322e-05
 -6.401782e-07
 6.646527e-09
 -5.164194e-07
 -1.507222e-06
 -3.667471e-07
 4.321188e-07
 -1.255133e-07
 2.849459e-07
 -7.488395e-07
 -2.162591e-06
 -1.185159e-06
 -1.114042e-06
 -1.157833e-06
 -1.208028e-06
 -1.213874e-06
 -1.168991e-06
 -1.088214e-06
 -9.860760e-07
 -8.749401e-07
 -7.700372e-07
 -6.955187e-07
 -6.838291e-07
 -5.856642e-07
 -2.297221e-07
 -1.963072e-07
 -4.793241e-07
 -4.765349e-07
 -3.449309e-07
 -2.511950e-07
 -1.903337e-07
 -1.538688e-07
 -1.323530e-07
 -1.183269e-07
 -1.069763e-07
 -9.397932e-08
 -6.796022e-08
 -8.029564e-08
 1.741159e-05
 3.124991e-08
 1.493907e-07
 2.875143e-09
 -1.800911e-07
 -1.296351e-07
 -4.112647e-08
 -1.103644e-08
 0.000000e+00
 0.000000e+00
 5.633490e-07
 1.617976e-06
 1.332259e-06
 -2.109254e-07
 1.555052e-05
 -1.998087e-06
 -5.252513e-07
 3.582094e-07
 1.716155e-05
 -4.541743e-07
 -4.232932e-07
 -4.454282e-07
 -7.502690e-07
 -1.093126e-06
 -1.124686e-06
 -1.074546e-06
 -1.074507e-06
 -1.084290e-06
 -1.076383e-06
 -1.041239e-06
 -9.815083e-07
 -9.043342e-07
 -8.185781e-07
 -7.373823e-07
 -6.887590e-07
 -7.594765e-07
 -1.751970e-06
 -4.158561e-07
 4.300566e-07
 -2.710670e-07
 -3.939062e-07
 -3.322143e-07
 -2.399890e-07
 -1.760761e-07
 -1.418016e-07
 -1.208643e-07
 -9.994873e-08
 -6.781677e-08
 -2.423801e-09
 1.712612e-07
 8.133429e-07
 -1.142723e-07
 -1.505517e-06
 -4.697430e-07
 -1.004758e-07
 1.089370e-07
 6.241577e-08
 1.215425e-08
 1.263935e-10
 0.000000e+00
 0.000000e+00
 1.771486e-05
 5.003339e-07
 6.500439e-07
 8.688833e-07
 -4.227571e-07
 -1.780517e-06
 1.694534e-05
 2.865597e-07
 -5.605201e-07
 -1.887586e-06
 -8.285193e-07
 -7.141352e-07
 -7.946859e-07
 -9.186169e-07
 -9.758426e-07
 -9.837832e-07
 -9.840159e-07
 -9.815487e-07
 -9.682074e-07
 -9.386422e-07
 -8.923937e-07
 -8.317300e-07
 -7.595656e-07
 -6.788297e-07
 -5.928046e-07
 -5.017563e-07
 -4.769525e-07
 1.699438e-05
 -4.958323e-07
 -5.012808e-07
 -4.748483e-07
 -3.339309e-07
 -1.906786e-07
 -1.299286e-07
 -1.175686e-07
 -1.099056e-07
 -9.148644e-08
 -5.576179e-08
 7.899617e-09
 1.127632e-07
 1.687116e-07
 -1.044845e-07
 -5.314870e-07
 -1.563163e-06
 -1.517682e-07
 7.898109e-07
 1.706299e-07
 3.137817e-08
 1.951233e-09
 0.000000e+00
 0.000000e+00
 4.493413e-08
 -9.219535e-07
 1.557712e-07
 2.534591e-07
 9.316548e-08
 4.055315e-07
 -4.488972e-07
 -1.653076e-06
 -8.160234e-07
 -9.393515e-07
 -8.770215e-07
 -7.899552e-07
 -7.977653e-07
 -8.420633e-07
 -8.767469e-07
 -8.917844e-07
 -8.949674e-07
 -8.904736e-07
 -8.771714e-07
 -8.531662e-07
 -8.177558e-07
 -7.705899e-07
 -7.092235e-07
 -6.255611e-07
 -4.987789e-07
 -2.611770e-07
 4.326902e-07
 -4.625712e-07
 -1.818390e-06
 -8.528705e-07
 -6.982367e-07
 -3.313954e-07
 -2.994038e-08
 -3.872997e-08
 -9.462707e-08
 -1.106509e-07
 -9.945381e-08
 -7.011703e-08
 -2.732687e-08
 1.566189e-08
 1.753479e-08
 -5.504480e-08
 -1.200128e-07
 -1.513022e-07
 1.734661e-05
 -8.103724e-08
 -3.270739e-08
 -3.104687e-08
 -1.702524e-08
 0.000000e+00
 0.000000e+00
 4.918208e-08
 5.300028e-07
 -1.106557e-07
 6.596128e-08
 2.174259e-07
 6.101123e-08
 -3.284288e-07
 -6.891367e-07
 -7.812478e-07
 -7.935244e-07
 -7.867894e-07
 -7.667223e-07
 -7.665330e-07
 -7.828828e-07
 -8.001569e-07
 -8.102668e-07
 -8.126152e-07
 -8.081919e-07
 -7.971151e-07
 -7.791952e-07
 -7.545505e-07
 -7.227469e-07
 -6.794628e-07
 -6.104460e-07
 -4.902773e-07
 -3.052657e-07
 -1.710630e-07
 -3.798287e-07
 -6.896377e-07
 -8.107504e-07
 -1.749128e-06
 -3.524698e-07
 6.117251e-07
 1.383694e-08
 -1.154410e-07
 -1.369821e-07
 -1.246480e-07
 -9.881704e-08
 -6.866773e-08
 -4.382882e-08
 -3.127504e-08
 -5.968649e-09
 1.448788e-07
 8.118486e-07
 -5.545017e-08
 -1.348131e-06
 -2.731417e-07
 -1.021557e-07
 -3.833621e-08
 0.000000e+00
 0.000000e+00
 1.728866e-05
 -3.821436e-07
 -1.427030e-06
 -1.279636e-07
 7.349227e-07
 -2.750956e-09
 -3.260771e-07
 -5.392140e-07
 -6.505385e-07
 -6.964219e-07
 -7.116633e-07
 -7.143332e-07
 -7.175526e-07
 -7.246155e-07
 -7.321171e-07
 -7.366196e-07
 -7.368003e-07
 -7.325217e-07
 -7.239963e-07
 -7.119223e-07
 -6.979636e-07
 -6.846852e-07
 -6.728421e-07
 -6.473859e-07
 -5.573263e-07
 -3.841538e-07
 -2.552149e-07
 -2.828817e-07
 -3.643783e-07
 -3.677084e-07
 -3.632921e-07
 1.713508e-05
 -2.897163e-07
 -2.306269e-07
 -2.166863e-07
 -1.909778e-07
 -1.620039e-07
 -1.321871e-07
 -1.050768e-07
 -8.651443e-08
 -7.852622e-08
 -5.644784e-08
 5.318676e-08
 2.041550e-07
 5.473187e-08
 -2.077121e-07
 -1.952105e-07
 -9.688866e-08
 -4.051626e-08
 0.000000e+00
 0.000000e+00
 -2.852398e-07
 -1.450576e-06
 -3.937360e-07
 1.720534e-05
 -2.557518e-07
 -2.910311e-07
 -4.035671e-07
 -5.065422e-07
 -5.818595e-07
 -6.265930e-07
 -6.492646e-07
 -6.591904e-07
 -6.635620e-07
 -6.660826e-07
 -6.675172e-07
 -6.674738e-07
 -6.654695e-07
 -6.611700e-07
 -6.545994e-07
 -6.467351e-07
 -6.406203e-07
 -6.434809e-07
 -6.709371e-07
 -7.502841e-07
 -7.434470e-07
 -4.194740e-07
 -1.291652e-07
 -1.306748e-07
 -1.473817e-07
 -1.587373e-08
 6.158239e-07
 -2.896799e-07
 -1.596213e-06
 -5.125339e-07
 -3.255444e-07
 -2.476871e-07
 -2.004841e-07
 -1.634041e-07
 -1.327346e-07
 -1.150698e-07
 -1.276046e-07
 -1.982895e-07
 -1.965657e-07
 7.206360e-08
 2.229142e-07
 6.989481e-08
 -4.037383e-08
 -5.135314e-08
 -2.897922e-08
 0.000000e+00
 0.000000e+00
 -6.577376e-08
 -7.857568e-08
 5.847270e-07
 -2.692167e-07
 -1.599131e-06
 -5.821757e-07
 -4.866883e-07
 -5.058464e-07
 -5.455912e-07
 -5.786484e-07
 -5.992897e-07
 -6.089424e-07
 -6.108928e-07
 -6.084759e-07
 -6.044067e-07
 -6.003116e-07
 -5.964812e-07
 -5.922360e-07
 -5.868166e-07
 -5.804355e-07
 -5.756147e-07
 -5.801863e-07
 -6.174824e-07
 -7.701255e-07
 -1.830450e-06
 -5.038055e-07
 4.624639e-07
 -4.086332e-08
 -5.519860e-08
 8.320222e-09
 2.917846e-08
 -2.338762e-07
 -5.196886e-07
 -4.816988e-07
 -3.549203e-07
 -2.802735e-07
 -2.310129e-07
 -1.898124e-07
 -1.491147e-07
 -1.155176e-07
 -1.191938e-07
 -2.492949e-07
 -1.301604e-06
 2.179485e-09
 8.708922e-07
 1.893313e-07
 1.084434e-08
 -2.890909e-08
 -2.157725e-08
 0.000000e+00
 0.000000e+00
 1.331203e-07
 2.245485e-07
 1.359737e-07
 -1.958877e-07
 -5.176817e-07
 -5.350794e-07
 -4.854584e-07
 -4.929231e-07
 -5.190650e-07
 -5.440880e-07
 -5.605307e-07
 -5.663785e-07
 -5.624866e-07
 -5.523362e-07
 -5.410788e-07
 -5.327070e-07
 -5.278922e-07
 -5.246353e-07
 -5.203473e-07
 -5.133195e-07
 -5.031990e-07
 -4.909942e-07
 -4.786808e-07
 -4.651710e-07
 -5.225629e-07
 1.685236e-05
 -6.072187e-07
 -2.620603e-07
 8.378083e-09
 -9.176126e-09
 -1.061359e-07
 -2.382295e-07
 -3.506544e-07
 -3.702239e-07
 -3.320977e-07
 -2.895038e-07
 -2.548465e-07
 -2.179975e-07
 -1.620663e-07
 -8.529799e-08
 -1.324235e-08
 3.741992e-08
 1.151732e-08
 1.745205e-05
 -3.454084e-08
 -2.903283e-08
 -5.176674e-08
 -4.574884e-08
 -2.572243e-08
 0.000000e+00
 0.000000e+00
 1.262538e-07
 7.675337e-07
 1.355414e-08
 -2.080341e-07
 -3.144009e-07
 -3.828775e-07
 -4.285941e-07
 -4.651281e-07
 -4.955962e-07
 -5.188835e-07
 -5.327734e-07
 -5.340202e-07
 -5.206937e-07
 -4.970887e-07
 -4.742104e-07
 -4.610591e-07
 -4.576749e-07
 -4.582439e-07
 -4.568547e-07
 -4.495259e-07
 -4.330740e-07
 -4.018219e-07
 -3.381608e-07
 -1.742485e-07
 4.318113e-07
 -6.239654e-07
 -2.986330e-06
 -5.748246e-07
 5.293065e-07
 -3.655677e-08
 -1.828316e-07
 -2.563693e-07
 -3.031042e-07
 -3.161586e-07
 -3.043273e-07
 -2.879210e-07
 -2.792602e-07
 -2.678262e-07
 -2.023571e-07
 -4.909948e-08
 1.244086e-07
 3.197179e-07
 9.366622e-07
 -7.026117e-09
 -1.353515e-06
 -3.035380e-07
 -1.401550e-07
 -7.584987e-08
 -3.509635e-08
 0.000000e+00
 0.000000e+00
 1.726896e-05
 -3.779157e-07
 -4.664739e-07
 -2.956601e-07
 -1.429231e-07
 -2.553243e-07
 -3.778917e-07
 -4.431332e-07
 -4.791605e-07
 -5.028310e-07
 -5.177597e-07
 -5.173944e-07
 -4.906678e-07
 -4.407120e-07
 -3.957321e-07
 -3.786184e-07
 -3.836350e-07
 -3.942171e-07
 -3.994746e-07
 -3.945554e-07
 -3.762834e-07
 -3.392899e-07
 -2.721997e-07
 -1.599565e-07
 -8.561873e-08
 -2.987624e-07
 -5.935742e-07
 1.691353e-05
 -4.151794e-07
 -3.167618e-07
 -3.003459e-07
 -2.948336e-07
 -2.942547e-07
 -2.890495e-07
 -2.793462e-07
 -2.756756e-07
 -2.970618e-07
 -3.714047e-07
 -3.584714e-07
 -2.258934e-08
 2.951338e-07
 3.486005e-07
 3.125850e-07
 1.466563e-08
 -2.961941e-07
 -2.761103e-07
 -1.596732e-07
 -8.889655e-08
 -4.024810e-08
 0.000000e+00
 0.000000e+00
 -4.277395e-07
 -1.837457e-06
 -1.867289e-06
 -4.422790e-07
 4.604413e-07
 -2.054962e-07
 -3.871785e-07
 -4.474119e-07
 -4.729254e-07
 -4.938438e-07
 -5.167346e-07
 -5.295129e-07
 -4.898432e-07
 -3.781605e-07
 -2.828966e-07
 -2.725839e-07
 -3.055466e-07
 -3.365853e-07
 -3.525112e-07
 -3.525827e-07
 -3.372017e-07
 -3.052531e-07
 -2.551299e-07
 -1.925221e-07
 -1.392936e-07
 -5.683368e-08
 4.918657e-07
 -4.303920e-07
 -1.708442e-06
 -5.989958e-07
 -4.022908e-07
 -3.281255e-07
 -2.920639e-07
 -2.682347e-07
 -2.495180e-07
 -2.403271e-07
 -2.617827e-07
 -3.926691e-07
 -1.420579e-06
 -5.877999e-08
 8.982757e-07
 2.960553e-07
 1.186949e-07
 -3.154077e-08
 -1.531588e-07
 -1.759722e-07
 -1.338679e-07
 -8.198456e-08
 -3.778897e-08
 0.000000e+00
 0.000000e+00
 -2.637962e-07
 -5.143574e-07
 -5.386148e-07
 1.698146e-05
 -4.800310e-07
 -4.720619e-07
 -4.925848e-07
 -4.795114e-07
 -4.676078e-07
 -4.809371e-07
 -5.186355e-07
 -5.945225e-07
 -5.892169e-07
 -2.940022e-07
 -5.777671e-08
 -1.275873e-07
 -2.359381e-07
 -2.955400e-07
 -3.213995e-07
 -3.257424e-07
 -3.144541e-07
 -2.901533e-07
 -2.550245e-07
 -2.132011e-07
 -1.672752e-07
 -1.049537e-07
 -8.562923e-08
 -3.401124e-07
 -6.074722e-07
 -5.506713e-07
 -4.109197e-07
 -3.300014e-07
 -2.802309e-07
 -2.440108e-07
 -2.122941e-07
 -1.808154e-07
 -1.466731e-07
 -1.008330e-07
 -9.944634e-08
 1.738738e-05
 -4.944832e-08
 -1.305739e-08
 -4.721964e-08
 -9.582914e-08
 -1.374770e-07
 -1.411659e-07
 -1.088878e-07
 -6.511474e-08
 -2.820936e-08
 0.000000e+00
 0.000000e+00
 -1.058750e-07
 -7.991263e-08
 4.928768e-07
 -4.500621e-07
 -1.812954e-06
 -7.969751e-07
 -6.345304e-07
 -5.086841e-07
 -4.304390e-07
 -4.469638e-07
 -4.904386e-07
 -5.718588e-07
 -1.556538e-06
 -2.318500e-07
 6.439167e-07
 -3.066231e-08
 -2.193745e-07
 -2.867373e-07
 -3.107260e-07
 -3.140075e-07
 -3.046335e-07
 -2.863155e-07
 -2.619130e-07
 -2.348094e-07
 -2.091606e-07
 -1.949028e-07
 -2.239220e-07
 -3.219664e-07
 -4.132438e-07
 -4.148778e-07
 -3.603880e-07
 -3.029889e-07
 -2.562254e-07
 -2.160630e-07
 -1.751172e-07
 -1.234116e-07
 -3.906615e-08
 1.529344e-07
 8.148506e-07
 -8.036923e-08
 -1.392693e-06
 -3.321765e-07
 -1.876020e-07
 -1.655563e-07
 -1.673418e-07
 -1.464891e-07
 -9.364454e-08
 -3.813851e-08
 -8.112320e-09
 0.000000e+00
 0.000000e+00
 -4.598178e-08
 -4.437946e-08
 -6.291971e-08
 -3.724812e-07
 -7.419331e-07
 -8.533290e-07
 -8.001179e-07
 -4.922582e-07
 -2.664161e-07
 -3.973863e-07
 -4.898130e-07
 -2.268417e-07
 -3.281623e-08
 1.735425e-05
 -2.143639e-07
 -2.490487e-07
 -2.967924e-07
 -3.147929e-07
 -3.188826e-07
 -3.143370e-07
 -3.036577e-07
 -2.886974e-07
 -2.715854e-07
 -2.552688e-07
 -2.441283e-07
 -2.453259e-07
 -2.675743e-07
 -3.077564e-07
 -3.385146e-07
 -3.350112e-07
 -3.033924e-07
 -2.633604e-07
 -2.253335e-07
 -1.886701e-07
 -1.473083e-07
 -9.253985e-08
 -1.180259e-08
 1.086770e-07
 1.820963e-07
 -5.241058e-08
 -3.357770e-07
 -3.180230e-07
 -2.322514e-07
 -2.163151e-07
 -2.258258e-07
 -1.921328e-07
 -8.045051e-08
 2.138640e-08
 3.671835e-08
 0.000000e+00
 0.000000e+00
 -3.960013e-08
 -8.030473e-08
 -1.585156e-07
 -3.181169e-07
 -5.122363e-07
 -7.361708e-07
 -1.806071e-06
 -4.824391e-07
 4.231730e-07
 -3.025934e-07
 -1.426876e-06
 2.466037e-08
 1.549662e-06
 -2.607367e-08
 -1.531629e-06
 -5.353155e-07
 -3.986852e-07
 -3.555280e-07
 -3.353103e-07
 -3.207149e-07
 -3.070188e-07
 -2.933698e-07
 -2.806687e-07
 -2.710219e-07
 -2.674546e-07
 -2.729921e-07
 -2.875910e-07
 -3.032439e-07
 -3.051744e-07
 -2.854614e-07
 -2.524327e-07
 -2.197515e-07
 -1.922965e-07
 -1.656574e-07
 -1.323145e-07
 -8.646656e-08
 -2.834297e-08
 2.597972e-08
 2.926789e-08
 -5.815829e-08
 -1.641376e-07
 -2.024465e-07
 -2.054210e-07
 -2.354049e-07
 -3.297838e-07
 -3.467723e-07
 -5.373502e-08
 1.948934e-07
 1.311290e-07
 0.000000e+00
 0.000000e+00
 -3.937741e-08
 -8.496738e-08
 -1.479655e-07
 -2.312564e-07
 -3.115615e-07
 -3.565310e-07
 -4.237993e-07
 1.701747e-05
 -3.943540e-07
 -2.144850e-07
 -1.056542e-07
 1.746146e-05
 2.520187e-08
 -2.261842e-07
 -5.505581e-07
 -5.396781e-07
 -4.350990e-07
 -3.792447e-07
 -3.476543e-07
 -3.267117e-07
 -3.105928e-07
 -2.972895e-07
 -2.868628e-07
 -2.807578e-07
 -2.812628e-07
 -2.901177e-07
 -3.049202e-07
 -3.136983e-07
 -2.969891e-07
 -2.501849e-07
 -1.991184e-07
 -1.692029e-07
 -1.580161e-07
 -1.496616e-07
 -1.307199e-07
 -9.481007e-08
 -4.747094e-08
 -9.145061e-09
 -5.055977e-09
 -4.121072e-08
 -9.046484e-08
 -1.237218e-07
 -1.452228e-07
 -1.890585e-07
 -3.424833e-07
 -1.396225e-06
 -6.584535e-08
 8.516367e-07
 2.057773e-07
 0.000000e+00
 0.000000e+00
 -3.442623e-08
 -7.126856e-08
 -1.111407e-07
 -1.461000e-07
 -1.482598e-07
 -3.770709e-08
 5.395680e-07
 -4.640633e-07
 -1.748723e-06
 -2.143776e-07
 8.639758e-07
 -2.374329e-08
 -1.439398e-06
 -5.196345e-07
 -4.847288e-07
 -4.679257e-07
 -4.229267e-07
 -3.810713e-07
 -3.505620e-07
 -3.284566e-07
 -3.116688e-07
 -2.985588e-07
 -2.888968e-07
 -2.838549e-07
 -2.861253e-07
 -2.995662e-07
 -3.262180e-07
 -3.521018e-07
 -3.259617e-07
 -2.188989e-07
 -1.182579e-07
 -9.794253e-08
 -1.217562e-07
 -1.453016e-07
 -1.480847e-07
 -1.174880e-07
 -5.887758e-08
 -6.741238e-09
 8.205213e-09
 -1.066901e-08
 -4.015737e-08
 -6.111278e-08
 -6.773250e-08
 -6.175686e-08
 -3.876041e-08
 -5.708755e-08
 1.741320e-05
 -3.410399e-08
 5.923411e-09
 0.000000e+00
 0.000000e+00
 -2.693886e-08
 -5.321792e-08
 -7.608036e-08
 -8.771500e-08
 -7.290451e-08
 -1.660157e-08
 -1.857873e-08
 -4.097135e-07
 -1.705594e-06
 -2.541628e-07
 8.316290e-07
 1.952988e-09
 -4.446748e-07
 -5.071301e-07
 -4.595586e-07
 -4.308761e-07
 -4.004594e-07
 -3.705142e-07
 -3.452230e-07
 -3.251487e-07
 -3.092966e-07
 -2.966078e-07
 -2.865721e-07
 -2.798860e-07
 -2.797371e-07
 -2.940609e-07
 -3.393159e-07
 -4.428663e-07
 -4.658341e-07
 -1.771883e-07
 7.033436e-08
 1.391946e-08
 -9.086018e-08
 -1.616981e-07
 -2.016340e-07
 -1.749503e-07
 -6.304535e-08
 4.033614e-08
 5.867265e-08
 2.929820e-08
 -1.073405e-09
 -1.423293e-08
 -2.116071e-09
 5.319723e-08
 2.241016e-07
 8.724491e-07
 -2.683517e-08
 -1.328420e-06
 -2.311937e-07
 0.000000e+00
 0.000000e+00
 -1.979818e-08
 -3.773940e-08
 -5.088454e-08
 -5.466652e-08
 -4.500939e-08
 -2.927364e-08
 -4.447436e-08
 -1.156445e-07
 -2.251195e-07
 1.723308e-05
 -2.190038e-07
 -2.667599e-07
 -3.856513e-07
 -4.291182e-07
 -4.208802e-07
 -4.000320e-07
 -3.770830e-07
 -3.545593e-07
 -3.344602e-07
 -3.176321e-07
 -3.038493e-07
 -2.921859e-07