<VTKFile type="UnstructuredGrid"  version="0.1"   >
<UnstructuredGrid>  
<Piece  NumberOfPoints="     2601"  NumberOfCells="     5000">  
<Points>  
<DataArray  type="Float64"  NumberOfComponents="3"  format="ascii">  
 0.000000 0.000000 0.000000 
 0.020000 0.000000 0.000000 
 0.040000 0.000000 0.000000 
 0.060000 0.000000 0.000000 
 0.080000 0.000000 0.000000 
 0.100000 0.000000 0.000000 
 0.120000 0.000000 0.000000 
 0.140000 0.000000 0.000000 
 0.160000 0.000000 0.000000 
 0.180000 0.000000 0.000000 
 0.200000 0.000000 0.000000 
 0.220000 0.000000 0.000000 
 0.240000 0.000000 0.000000 
 0.260000 0.000000 0.000000 
 0.280000 0.000000 0.000000 
 0.300000 0.000000 0.000000 
 0.320000 0.000000 0.000000 
 0.340000 0.000000 0.000000 
 0.360000 0.000000 0.000000 
 0.380000 0.000000 0.000000 
 0.400000 0.000000 0.000000 
 0.420000 0.000000 0.000000 
 0.440000 0.000000 0.000000 
 0.460000 0.000000 0.000000 
 0.480000 0.000000 0.000000 
 0.500000 0.000000 0.000000 
 0.520000 0.000000 0.000000 
 0.540000 0.000000 0.000000 
 0.560000 0.000000 0.000000 
 0.580000 0.000000 0.000000 
 0.600000 0.000000 0.000000 
 0.620000 0.000000 0.000000 
 0.640000 0.000000 0.000000 
 0.660000 0.000000 0.000000 
 0.680000 0.000000 0.000000 
 0.700000 0.000000 0.000000 
 0.720000 0.000000 0.000000 
 0.740000 0.000000 0.000000 
 0.760000 0.000000 0.000000 
 0.780000 0.000000 0.000000 
 0.800000 0.000000 0.000000 
 0.820000 0.000000 0.000000 
 0.840000 0.000000 0.000000 
 0.860000 0.000000 0.000000 
 0.880000 0.000000 0.000000 
 0.900000 0.000000 0.000000 
 0.920000 0.000000 0.000000 
 0.940000 0.000000 0.000000 
 0.960000 0.000000 0.000000 
 0.980000 0.000000 0.000000 
 1.000000 0.000000 0.000000 
 0.000000 0.020000 0.000000 
 0.020000 0.020000 0.000000 
 0.040000 0.020000 0.000000 
 0.060000 0.020000 0.000000 
 0.080000 0.020000 0.000000 
 0.100000 0.020000 0.000000 
 0.120000 0.020000 0.000000 
 0.140000 0.020000 0.000000 
 0.160000 0.020000 0.000000 
 0.180000 0.020000 0.000000 
 0.200000 0.020000 0.000000 
 0.220000 0.020000 0.000000 
 0.240000 0.020000 0.000000 
 0.260000 0.020000 0.000000 
 0.280000 0.020000 0.000000 
 0.300000 0.020000 0.000000 
 0.320000 0.020000 0.000000 
 0.340000 0.020000 0.000000 
 0.360000 0.020000 0.000000 
 0.380000 0.020000 0.000000 
 0.400000 0.020000 0.000000 
 0.420000 0.020000 0.000000 
 0.440000 0.020000 0.000000 
 0.460000 0.020000 0.000000 
 0.480000 0.020000 0.000000 
 0.500000 0.020000 0.000000 
 0.520000 0.020000 0.000000 
 0.540000 0.020000 0.000000 
 0.560000 0.020000 0.000000 
 0.580000 0.020000 0.000000 
 0.600000 0.020000 0.000000 
 0.620000 0.020000 0.000000 
 0.640000 0.020000 0.000000 
 0.660000 0.020000 0.000000 
 0.680000 0.020000 0.000000 
 0.700000 0.020000 0.000000 
 0.720000 0.020000 0.000000 
 0.740000 0.020000 0.000000 
 0.760000 0.020000 0.000000 
 0.780000 0.020000 0.000000 
 0.800000 0.020000 0.000000 
 0.820000 0.020000 0.000000 
 0.840000 0.020000 0.000000 
 0.860000 0.020000 0.000000 
 0.880000 0.020000 0.000000 
 0.900000 0.020000 0.000000 
 0.920000 0.020000 0.000000 
 0.940000 0.020000 0.000000 
 0.960000 0.020000 0.000000 
 0.980000 0.020000 0.000000 
 1.000000 0.020000 0.000000 
 0.000000 0.040000 0.000000 
 0.020000 0.040000 0.000000 
 0.040000 0.040000 0.000000 
 0.060000 0.040000 0.000000 
 0.080000 0.040000 0.000000 
 0.100000 0.040000 0.000000 
 0.120000 0.040000 0.000000 
 0.140000 0.040000 0.000000 
 0.160000 0.040000 0.000000 
 0.180000 0.040000 0.000000 
 0.200000 0.040000 0.000000 
 0.220000 0.040000 0.000000 
 0.240000 0.040000 0.000000 
 0.260000 0.040000 0.000000 
 0.280000 0.040000 0.000000 
 0.300000 0.040000 0.000000 
 0.320000 0.040000 0.000000 
 0.340000 0.040000 0.000000 
 0.360000 0.040000 0.000000 
 0.380000 0.040000 0.000000 
 0.400000 0.040000 0.000000 
 0.420000 0.040000 0.000000 
 0.440000 0.040000 0.000000 
 0.460000 0.040000 0.000000 
 0.480000 0.040000 0.000000 
 0.500000 0.040000 0.000000 
 0.520000 0.040000 0.000000 
 0.540000 0.040000 0.000000 
 0.560000 0.040000 0.000000 
 0.580000 0.040000 0.000000 
 0.600000 0.040000 0.000000 
 0.620000 0.040000 0.000000 
 0.640000 0.040000 0.000000 
 0.660000 0.040000 0.000000 
 0.680000 0.040000 0.000000 
 0.700000 0.040000 0.000000 
 0.720000 0.040000 0.000000 
 0.740000 0.040000 0.000000 
 0.760000 0.040000 0.000000 
 0.780000 0.040000 0.000000 
 0.800000 0.040000 0.000000 
 0.820000 0.040000 0.000000 
 0.840000 0.040000 0.000000 
 0.860000 0.040000 0.000000 
 0.880000 0.040000 0.000000 
 0.900000 0.040000 0.000000 
 0.920000 0.040000 0.000000 
 0.940000 0.040000 0.000000 
 0.960000 0.040000 0.000000 
 0.980000 0.040000 0.000000 
 1.000000 0.040000 0.000000 
 0.000000 0.060000 0.000000 
 0.020000 0.060000 0.000000 
 0.040000 0.060000 0.000000 
 0.060000 0.060000 0.000000 
 0.080000 0.060000 0.000000 
 0.100000 0.060000 0.000000 
 0.120000 0.060000 0.000000 
 0.140000 0.060000 0.000000 
 0.160000 0.060000 0.000000 
 0.180000 0.060000 0.000000 
 0.200000 0.060000 0.000000 
 0.220000 0.060000 0.000000 
 0.240000 0.060000 0.000000 
 0.260000 0.060000 0.000000 
 0.280000 0.060000 0.000000 
 0.300000 0.060000 0.000000 
 0.320000 0.060000 0.000000 
 0.340000 0.060000 0.000000 
 0.360000 0.060000 0.000000 
 0.380000 0.060000 0.000000 
 0.400000 0.060000 0.000000 
 0.420000 0.060000 0.000000 
 0.440000 0.060000 0.000000 
 0.460000 0.060000 0.000000 
 0.480000 0.060000 0.000000 
 0.500000 0.060000 0.000000 
 0.520000 0.060000 0.000000 
 0.540000 0.060000 0.000000 
 0.560000 0.060000 0.000000 
 0.580000 0.060000 0.000000 
 0.600000 0.060000 0.000000 
 0.620000 0.060000 0.000000 
 0.640000 0.060000 0.000000 
 0.660000 0.060000 0.000000 
 0.680000 0.060000 0.000000 
 0.700000 0.060000 0.000000 
 0.720000 0.060000 0.000000 
 0.740000 0.060000 0.000000 
 0.760000 0.060000 0.000000 
 0.780000 0.060000 0.000000 
 0.800000 0.060000 0.000000 
 0.820000 0.060000 0.000000 
 0.840000 0.060000 0.000000 
 0.860000 0.060000 0.000000 
 0.880000 0.060000 0.000000 
 0.900000 0.060000 0.000000 
 0.920000 0.060000 0.000000 
 0.940000 0.060000 0.000000 
 0.960000 0.060000 0.000000 
 0.980000 0.060000 0.000000 
 1.000000 0.060000 0.000000 
 0.000000 0.080000 0.000000 
 0.020000 0.080000 0.000000 
 0.040000 0.080000 0.000000 
 0.060000 0.080000 0.000000 
 0.080000 0.080000 0.000000 
 0.100000 0.080000 0.000000 
 0.120000 0.080000 0.000000 
 0.140000 0.080000 0.000000 
 0.160000 0.080000 0.000000 
 0.180000 0.080000 0.000000 
 0.200000 0.080000 0.000000 
 0.220000 0.080000 0.000000 
 0.240000 0.080000 0.000000 
 0.260000 0.080000 0.000000 
 0.280000 0.080000 0.000000 
 0.300000 0.080000 0.000000 
 0.320000 0.080000 0.000000 
 0.340000 0.080000 0.000000 
 0.360000 0.080000 0.000000 
 0.380000 0.080000 0.000000 
 0.400000 0.080000 0.000000 
 0.420000 0.080000 0.000000 
 0.440000 0.080000 0.000000 
 0.460000 0.080000 0.000000 
 0.480000 0.080000 0.000000 
 0.500000 0.080000 0.000000 
 0.520000 0.080000 0.000000 
 0.540000 0.080000 0.000000 
 0.560000 0.080000 0.000000 
 0.580000 0.080000 0.000000 
 0.600000 0.080000 0.000000 
 0.620000 0.080000 0.000000 
 0.640000 0.080000 0.000000 
 0.660000 0.080000 0.000000 
 0.680000 0.080000 0.000000 
 0.700000 0.080000 0.000000 
 0.720000 0.080000 0.000000 
 0.740000 0.080000 0.000000 
 0.760000 0.080000 0.000000 
 0.780000 0.080000 0.000000 
 0.800000 0.080000 0.000000 
 0.820000 0.080000 0.000000 
 0.840000 0.080000 0.000000 
 0.860000 0.080000 0.000000 
 0.880000 0.080000 0.000000 
 0.900000 0.080000 0.000000 
 0.920000 0.080000 0.000000 
 0.940000 0.080000 0.000000 
 0.960000 0.080000 0.000000 
 0.980000 0.080000 0.000000 
 1.000000 0.080000 0.000000 
 0.000000 0.100000 0.000000 
 0.020000 0.100000 0.000000 
 0.040000 0.100000 0.000000 
 0.060000 0.100000 0.000000 
 0.080000 0.100000 0.000000 
 0.100000 0.100000 0.000000 
 0.120000 0.100000 0.000000 
 0.140000 0.100000 0.000000 
 0.160000 0.100000 0.000000 
 0.180000 0.100000 0.000000 
 0.200000 0.100000 0.000000 
 0.220000 0.100000 0.000000 
 0.240000 0.100000 0.000000 
 0.260000 0.100000 0.000000 
 0.280000 0.100000 0.000000 
 0.300000 0.100000 0.000000 
 0.320000 0.100000 0.000000 
 0.340000 0.100000 0.000000 
 0.360000 0.100000 0.000000 
 0.380000 0.100000 0.000000 
 0.400000 0.100000 0.000000 
 0.420000 0.100000 0.000000 
 0.440000 0.100000 0.000000 
 0.460000 0.100000 0.000000 
 0.480000 0.100000 0.000000 
 0.500000 0.100000 0.000000 
 0.520000 0.100000 0.000000 
 0.540000 0.100000 0.000000 
 0.560000 0.100000 0.000000 
 0.580000 0.100000 0.000000 
 0.600000 0.100000 0.000000 
 0.620000 0.100000 0.000000 
 0.640000 0.100000 0.000000 
 0.660000 0.100000 0.000000 
 0.680000 0.100000 0.000000 
 0.700000 0.100000 0.000000 
 0.720000 0.100000 0.000000 
 0.740000 0.100000 0.000000 
 0.760000 0.100000 0.000000 
 0.780000 0.100000 0.000000 
 0.800000 0.100000 0.000000 
 0.820000 0.100000 0.000000 
 0.840000 0.100000 0.000000 
 0.860000 0.100000 0.000000 
 0.880000 0.100000 0.000000 
 0.900000 0.100000 0.000000 
 0.920000 0.100000 0.000000 
 0.940000 0.100000 0.000000 
 0.960000 0.100000 0.000000 
 0.980000 0.100000 0.000000 
 1.000000 0.100000 0.000000 
 0.000000 0.120000 0.000000 
 0.020000 0.120000 0.000000 
 0.040000 0.120000 0.000000 
 0.060000 0.120000 0.000000 
 0.080000 0.120000 0.000000 
 0.100000 0.120000 0.000000 
 0.120000 0.120000 0.000000 
 0.140000 0.120000 0.000000 
 0.160000 0.120000 0.000000 
 0.180000 0.120000 0.000000 
 0.200000 0.120000 0.000000 
 0.220000 0.120000 0.000000 
 0.240000 0.120000 0.000000 
 0.260000 0.120000 0.000000 
 0.280000 0.120000 0.000000 
 0.300000 0.120000 0.000000 
 0.320000 0.120000 0.000000 
 0.340000 0.120000 0.000000 
 0.360000 0.120000 0.000000 
 0.380000 0.120000 0.000000 
 0.400000 0.120000 0.000000 
 0.420000 0.120000 0.000000 
 0.440000 0.120000 0.000000 
 0.460000 0.120000 0.000000 
 0.480000 0.120000 0.000000 
 0.500000 0.120000 0.000000 
 0.520000 0.120000 0.000000 
 0.540000 0.120000 0.000000 
 0.560000 0.120000 0.000000 
 0.580000 0.120000 0.000000 
 0.600000 0.120000 0.000000 
[...]
<PointData  Scalars="U"> 
<DataArray  type="Float64"  Name="U"  format="ascii"> 
 0.000000e+00
 0.000000e+00
 0.000000e+00
 0.000000e+00
 0.000000e+00
 0.000000e+00
 0.000000e+00
 0.000000e+00
 0.000000e+00
 0.000000e+00
 0.000000e+00
 0.000000e+00
 0.000000e+00
 0.000000e+00
 0.000000e+00
 0.000000e+00
 0.000000e+00
 0.000000e+00
 0.000000e+00
 0.000000e+00
 0.000000e+00
 0.000000e+00
 0.000000e+00
 0.000000e+00
 0.000000e+00
 0.000000e+00
 0.000000e+00
 0.000000e+00
 0.000000e+00
 0.000000e+00
 0.000000e+00
 0.000000e+00
 0.000000e+00
 0.000000e+00
 0.000000e+00
 0.000000e+00
 0.000000e+00
 0.000000e+00
 0.000000e+00
 0.000000e+00
 0.000000e+00
 0.000000e+00
 0.000000e+00
 0.000000e+00
 0.000000e+00
 0.000000e+00
 0.000000e+00
 0.000000e+00
 0.000000e+00
 0.000000e+00
 0.000000e+00
 0.000000e+00
 1.506320e-09
 3.141213e-09
 5.006372e-09
 7.122862e-09
 9.290737e-09
 1.070086e-08
 8.858146e-09
 -3.329554e-09
 -4.459034e-08
 -1.543369e-07
 -2.197081e-07
 -4.811879e-08
 -9.333137e-08
 -1.306312e-06
 5.615959e-08
 1.031619e-06
 2.883038e-07
 5.411629e-08
 -1.351294e-08
 -2.891925e-08
 -2.868649e-08
 -2.425972e-08
 -1.918522e-08
 -1.463134e-08
 -1.128967e-08
 -1.032944e-08
 -1.481031e-08
 -3.440388e-08
 -1.036676e-07
 -3.489187e-07
 -1.489166e-06
 -4.870459e-08
 9.409466e-07
 2.167599e-07
 5.308107e-08
 3.333061e-08
 -3.291106e-08
 -1.768523e-07
 -2.461452e-07
 -7.685328e-09
 2.053639e-07
 1.477169e-07
 6.872268e-08
 3.541595e-08
 2.273556e-08
 1.650336e-08
 1.189602e-08
 7.697434e-09
 3.503634e-09
 0.000000e+00
 0.000000e+00
 2.880204e-09
 6.040729e-09
 9.730360e-09
 1.410898e-08
 1.910254e-08
 2.400072e-08
 2.631626e-08
 1.841192e-08
 -2.362625e-08
 -1.850479e-07
 -1.265726e-06
 -3.052940e-09
 7.343869e-07
 -1.050064e-06
 1.748831e-05
 8.187922e-07
 1.577067e-07
 -2.648307e-08
 -6.861201e-08
 -7.011590e-08
 -6.051173e-08
 -4.885103e-08
 -3.779177e-08
 -2.812197e-08
 -2.044751e-08
 -1.603834e-08
 -1.758804e-08
 -3.088240e-08
 -7.304848e-08
 -2.169843e-07
 -1.332722e-06
 1.735504e-05
 6.313282e-07
 -6.698103e-08
 -4.316640e-09
 1.455070e-07
 8.220884e-09
 -2.625249e-07
 -1.378943e-06
 -7.312226e-08
 8.475176e-07
 2.302033e-07
 8.966049e-08
 5.307704e-08
 4.051740e-08
 3.188726e-08
 2.347454e-08
 1.533179e-08
 7.548375e-09
 0.000000e+00
 0.000000e+00
 3.969085e-09
 8.398337e-09
 1.373236e-08
 2.039105e-08
 2.876282e-08
 3.918294e-08
 5.189235e-08
 6.711841e-08
 8.616282e-08
 1.182772e-07
 1.121596e-07
 1.761892e-05
 3.153184e-07
 9.144375e-07
 1.739729e-05
 -1.428910e-06
 -3.608073e-07
 -2.152463e-07
 -1.555038e-07
 -1.197281e-07
 -9.353046e-08
 -7.259204e-08
 -5.499729e-08
 -3.973032e-08
 -2.656340e-08
 -1.620561e-08
 -9.821046e-09
 -4.613510e-09
 2.926656e-08
 2.160375e-07
 8.784852e-07
 1.741764e-05
 -1.566193e-06
 -1.610395e-06
 -2.009591e-07
 7.180471e-07
 6.980101e-08
 -8.959600e-08
 -1.592264e-07
 1.732601e-05
 -7.670785e-08
 8.027189e-09
 3.499804e-08
 5.404572e-08
 5.652628e-08
 4.747841e-08
 3.469248e-08
 2.258137e-08
 1.133675e-08
 0.000000e+00
 0.000000e+00
 4.594971e-09
 9.846916e-09
 1.640485e-08
 2.495215e-08
 3.635799e-08
 5.205657e-08
 7.503209e-08
 1.127791e-07
 1.876614e-07
 3.793903e-07
 1.063242e-06
 2.463945e-07
 -8.368366e-07
 8.894715e-07
 -1.384898e-07
 -1.720546e-06
 -6.246169e-07
 -3.436451e-07
 -2.236456e-07
 -1.609043e-07
 -1.215747e-07
 -9.311190e-08
 -6.999991e-08
 -4.940475e-08
 -3.001764e-08
 -1.209864e-08
 2.026798e-09
 8.119901e-09
 9.607460e-09
 2.331463e-07
 1.187924e-06
 2.429917e-07
 -1.441772e-06
 -5.087812e-07
 1.714518e-05
 -2.496468e-07
 -1.802810e-07
 -6.287932e-08
 5.850683e-07
 -2.228327e-07
 -1.405849e-06
 -2.379012e-07
 -6.487270e-09
 7.359723e-08
 8.442937e-08
 6.608054e-08
 4.440062e-08
 2.881031e-08
 1.551849e-08
 0.000000e+00
 0.000000e+00
 4.561174e-09
 9.992391e-09
 1.711351e-08
 2.673548e-08
 3.987691e-08
 5.825648e-08
 8.528129e-08
 1.280468e-07
 2.008099e-07
 3.232172e-07
 4.190831e-07
 2.429865e-07
 6.142507e-08
 1.031558e-07
 -1.536674e-07
 -5.086532e-07
 -4.910541e-07
 -3.419853e-07
 -2.435609e-07
 -1.814971e-07
 -1.397084e-07
 -1.086561e-07
 -8.271098e-08
 -5.812007e-08
 -3.235145e-08
 -4.623794e-09
 2.204397e-08
 3.300214e-08
 -3.918300e-08
 -9.776760e-07
 3.841216e-07
 9.808263e-07
 8.496074e-08
 5.312496e-07
 -3.238072e-07
 -1.602563e-06
 -5.261640e-07
 -3.892844e-07
 -3.456248e-07
 -3.168450e-07
 -2.953060e-07
 -1.365212e-07
 7.564661e-08
 1.593404e-07
 1.394608e-07
 8.506352e-08
 4.544352e-08
 3.278174e-08
 2.360463e-08
 0.000000e+00
 0.000000e+00
 3.646369e-09
 8.441630e-09
 1.534872e-08
 2.510370e-08
 3.841293e-08
 5.637424e-08
 8.097065e-08
 1.151918e-07
 1.610240e-07
 2.090391e-07
 2.191268e-07
 1.525487e-07
 6.305806e-08
 -1.603498e-08
 -1.493919e-07
 -2.860550e-07
 -3.219419e-07
 -2.820463e-07
 -2.282752e-07
 -1.830089e-07
 -1.477161e-07
 -1.193668e-07
 -9.423969e-08
 -6.827313e-08
 -3.718287e-08
 2.524914e-09
 5.222268e-08
 1.118220e-07
 1.849742e-07
 1.969539e-07
 1.763049e-05
 5.643809e-08
 -8.265158e-10
 -3.601004e-08
 -2.763703e-07
 -5.383520e-07
 -5.212312e-07
 -5.656327e-07
 -1.668041e-06
 -5.714106e-07
 2.259525e-07
 -7.589985e-09
 3.165615e-07
 3.532525e-07
 2.244756e-07
 8.305036e-08
 1.182394e-08
 3.464999e-08
 5.385783e-08
 0.000000e+00
 0.000000e+00
 1.547425e-09
 4.734084e-09
 1.072424e-08
 1.998007e-08
 3.245057e-08
 4.806495e-08
 6.705590e-08
 8.943167e-08
 1.127971e-07
 1.284324e-07
 1.208899e-07
 8.165610e-08
 2.226692e-08
 -4.746010e-08
 -1.281717e-07
 -1.991643e-07
 -2.316011e-07
 -2.260091e-07
 -2.018648e-07
 -1.740886e-07
 -1.487364e-07
 -1.267983e-07
 -1.065385e-07
 -8.366151e-08
 -5.104516e-08
 -6.726106e-10
 7.287730e-08
 1.796750e-07
 3.812062e-07
 1.027953e-06
 8.332178e-08
 -1.304743e-06
 -3.132743e-07
 -2.256539e-07
 -2.816752e-07
 -3.443944e-07
 -3.238268e-07
 -2.724809e-07
 -3.795550e-07
 1.673335e-05
 -1.972070e-06
 -3.754282e-07
 1.084338e-06
 6.612502e-07
 3.190937e-07
 4.427545e-09
 -1.461532e-07
 4.624312e-08
 1.912783e-07
 0.000000e+00
 0.000000e+00
 -2.276999e-09
 -1.906941e-09
 2.738147e-09
 1.164241e-08
 2.341800e-08
 3.638716e-08
 4.942594e-08
 6.159195e-08
 7.066555e-08
 7.190501e-08
 5.930701e-08
 3.021551e-08
 -1.205398e-08
 -6.219118e-08
 -1.142904e-07
 -1.579268e-07
 -1.826442e-07
 -1.869550e-07
 -1.774528e-07
 -1.619835e-07
 -1.459530e-07
 -1.321442e-07
 -1.209143e-07
 -1.085317e-07
 -8.333935e-08
 -2.719805e-08
 6.621131e-08
 1.806518e-07
 3.038620e-07
 3.488394e-07
 6.512364e-08
 -2.777362e-07
 -3.179824e-07
 -2.780196e-07
 -2.819833e-07
 -2.675149e-07
 -1.628274e-07
 9.869911e-08
 7.504091e-07
 -3.923822e-07
 -3.046263e-06
 1.571285e-05
 7.250697e-07
 1.151773e-06
 3.250693e-07
 -6.709169e-08
 -1.228415e-06
 2.334223e-08
 8.417926e-07
 0.000000e+00
 0.000000e+00
 -8.927795e-09
 -1.312482e-08
 -9.764344e-09
 3.921356e-10
 1.332426e-08
 2.470522e-08
 3.245600e-08
 3.635299e-08
 3.602544e-08
 2.981595e-08
 1.550430e-08
 -7.822925e-09
 -3.869577e-08
 -7.383451e-08
 -1.086673e-07
 -1.375200e-07
 -1.556211e-07
 -1.617740e-07
 -1.584926e-07
 -1.500003e-07
 -1.405981e-07
 -1.343242e-07
 -1.350510e-07
 -1.444408e-07
 -1.485745e-07
 -9.661435e-08
 4.044143e-08
 1.747484e-07
 2.205234e-07
 1.699797e-07
 2.406214e-08
 -1.379981e-07
 -2.330993e-07
 -2.827347e-07
 -2.989253e-07
 -2.823423e-07
 -1.596817e-07
 2.519666e-07
 5.687765e-07
 3.798565e-07
 4.991169e-07
 1.694690e-05
 1.597786e-05
 -1.052697e-07
 6.301686e-08
 7.381243e-08
 5.596414e-08
 1.750964e-05
 2.203788e-08
 0.000000e+00
 0.000000e+00
 -2.062061e-08
 -3.255925e-08
 -2.970358e-08
 -1.367064e-08
 5.263391e-09
 1.701135e-08
 1.928207e-08
 1.506467e-08
 7.133919e-09
 -3.926444e-09
 -1.882072e-08
 -3.802528e-08
 -6.088584e-08
 -8.552541e-08
 -1.091413e-07
 -1.285573e-07
 -1.412350e-07
 -1.462902e-07
 -1.447121e-07
 -1.388665e-07
 -1.321248e-07
 -1.293586e-07
 -1.388838e-07
 -1.767328e-07
 -2.701192e-07
 -2.809734e-07
 2.017866e-08
 2.782521e-07
 2.252422e-07
 1.073955e-07
 2.084802e-09
 -9.401588e-08
 -1.860318e-07
 -3.132263e-07
 -3.756138e-07
 -2.290485e-07
 -1.005740e-06
 3.333359e-07
 1.259638e-06
 7.683965e-07
 1.191049e-06
 -4.926979e-07
 -1.720366e-06
 -1.033458e-06
 -2.385861e-07
 1.556766e-07
 9.545832e-07
 1.021985e-07
 -1.189297e-06
 0.000000e+00
 0.000000e+00
 -4.128770e-08
 -6.818842e-08
 -6.465547e-08
 -3.055165e-08
 6.081609e-09
 1.973578e-08
 1.241921e-08
 -2.957515e-09
 -1.885310e-08
 -3.377533e-08
 -4.862081e-08
 -6.435923e-08
 -8.113853e-08
 -9.816023e-08
 -1.139190e-07
 -1.266363e-07
 -1.348076e-07
 -1.376643e-07
 -1.353414e-07
 -1.288410e-07
 -1.201847e-07
 -1.132997e-07
 -1.168074e-07
 -1.538129e-07
 -3.051962e-07
 -1.361608e-06
 -4.015561e-08
 8.634556e-07
 2.097334e-07
 3.304293e-08
 -2.780831e-08
 -6.186209e-08
 -1.082434e-07
 -2.437007e-07
 -1.271935e-06
 8.237748e-08
 9.748474e-07
 1.782205e-05
 3.044499e-07
 5.057181e-07
 6.505385e-07
 2.870932e-07
 1.703316e-05
 -8.088279e-07
 -5.843199e-07
 -1.766423e-09
 4.266980e-07
 2.144947e-07
 -8.508797e-08
 0.000000e+00
 0.000000e+00
 -7.527634e-08
 -1.368532e-07
 -1.367456e-07
 -4.926941e-08
 3.620836e-08
 4.493737e-08
 1.216371e-08
 -2.152547e-08
 -4.615124e-08
 -6.367403e-08
 -7.737094e-08
 -8.948560e-08
 -1.010262e-07
 -1.120084e-07
 -1.217859e-07
 -1.293937e-07
 -1.338529e-07
 -1.343573e-07
 -1.302994e-07
 -1.212475e-07
 -1.071222e-07
 -8.867116e-08
 -6.777625e-08
 -4.629364e-08
 -1.935929e-08
 -4.699424e-08
 1.739709e-05
 -9.652596e-08
 -1.119475e-07
 -1.336265e-07
 -7.729685e-08
 -1.979443e-08
 2.345011e-08
 1.347461e-07
 2.321506e-07
 1.785463e-05
 9.827651e-07
 1.221591e-08
 -1.295051e-06
 1.389620e-07
 6.760058e-07
 1.123311e-06
 -1.620709e-07
 -1.817277e-06
 -1.781286e-06
 -1.694744e-07
 8.823059e-07
 2.470900e-07
 4.537352e-08
 0.000000e+00
 0.000000e+00
 -1.143181e-07
 -2.675026e-07
 -3.259505e-07
 -6.175458e-08
 1.705099e-07
 1.076997e-07
 6.506474e-09
 -5.055407e-08
 -8.058553e-08
 -9.718540e-08
 -1.074895e-07
 -1.150191e-07
 -1.213615e-07
 -1.270089e-07
 -1.318238e-07
 -1.353338e-07
 -1.368881e-07
 -1.356361e-07
 -1.302990e-07
 -1.188663e-07
 -9.860980e-08
 -6.658430e-08
 -1.869138e-08
 6.002616e-08
 2.385113e-07
 8.747664e-07
 -6.326511e-08
 -1.447067e-06
 -5.096194e-07
 -4.015607e-07
 -1.137879e-07
 6.451177e-08
 5.873931e-08
 4.482630e-07
 1.342377e-06
 4.501224e-07
 -9.422834e-07
 -2.969012e-07
 -1.444148e-06
 2.218417e-08
 1.132973e-06
 5.219787e-07
 2.419548e-08
 -3.618842e-07
 -3.623071e-07
 1.728028e-05
 -5.434144e-08
 1.989158e-08
 6.269010e-09
 0.000000e+00
 0.000000e+00
 -1.137231e-07
 -3.235003e-07
 -1.421818e-06
 -1.247697e-07
 7.718495e-07
 1.232881e-07
 -4.719518e-08
 -1.050272e-07
 -1.273718e-07
 -1.364339e-07
 -1.400823e-07
 -1.415660e-07
 -1.422912e-07
 -1.427893e-07
 -1.431419e-07
 -1.432027e-07
 -1.426618e-07
 -1.408693e-07
 -1.362523e-07
 -1.252892e-07
 -1.018696e-07
 -5.921859e-08
 5.845728e-09
 9.431040e-08
 2.104662e-07
 2.656059e-07
 -1.631982e-09
 -3.466809e-07
 -4.938185e-07
 -1.464646e-06
 -1.280994e-07
 6.787560e-07
 -9.434704e-07
 3.433943e-07
 1.302770e-06
 4.482050e-07
 6.368905e-09
 -6.347731e-08
 -4.800346e-08
 1.750044e-05
 1.311716e-07
 1.580635e-07
 4.029305e-08
 3.321198e-08
 6.540886e-07
 -1.240446e-07
 -1.308931e-06
 -2.012341e-07
 -4.538403e-08
 0.000000e+00
 0.000000e+00
 -4.524031e-08
 -7.472505e-08
 -1.400864e-07
 1.729151e-05
 -1.856699e-07
 -1.672301e-07
 -1.860796e-07
 -1.885704e-07
 -1.856192e-07
 -1.804634e-07
 -1.745711e-07
 -1.687371e-07
 -1.633780e-07
 -1.586808e-07
 -1.547308e-07
 -1.516281e-07
 -1.495493e-07
 -1.486015e-07
 -1.480433e-07
 -1.439384e-07
 -1.251266e-07
 -7.502600e-08
 8.592677e-09
 9.852626e-08
 1.583381e-07
 1.489424e-07
 4.836072e-08
 -5.869715e-08
 -7.090191e-08
 -6.831912e-08
 1.743525e-05
 3.443429e-08
 8.541675e-08
 1.758482e-05
 1.451426e-07
 1.223777e-07
 5.897657e-08
 1.794290e-07
 8.610017e-07
 5.330176e-08
 -1.175729e-06
 -1.036719e-07
 -1.258910e-08
 -6.208903e-08
 -6.669333e-08
 -2.853201e-08
 -5.182083e-08
 -5.782241e-08
 -2.247235e-08
 0.000000e+00
 0.000000e+00
 1.134886e-08
 1.270913e-07
 7.233009e-07
 -2.202761e-07
 -1.559971e-06
 -5.029322e-07
 -3.370448e-07
 -2.767598e-07
 -2.458523e-07
 -2.251311e-07
 -2.089409e-07
 -1.953955e-07
 -1.837858e-07
 -1.738289e-07
 -1.654898e-07
 -1.590329e-07
 -1.552056e-07
 -1.554924e-07
 -1.620928e-07
 -1.756754e-07
 -1.820146e-07
 -1.309544e-07
 4.346198e-09
 1.329474e-07
 1.731128e-07
 1.497069e-07
 1.088553e-07
 1.087083e-07
 2.547074e-07
 9.157565e-07
 7.233678e-08
 -1.066325e-06
 6.555384e-07
 -7.279308e-08
 -1.323010e-06
 -2.304641e-07
 -5.934835e-08
 2.995848e-08
 1.437260e-07
 1.059708e-07
 5.759367e-09
 4.136443e-08
 3.823415e-08
 -1.354870e-07
 -1.248167e-06
 -3.541762e-08
 7.776076e-07
 1.283240e-07
 9.072194e-09
 0.000000e+00
 0.000000e+00
 -1.123209e-08
 1.922671e-08
 2.177890e-08
 -2.573550e-07
 -5.581431e-07
 -5.315820e-07
 -4.121091e-07
 -3.419904e-07
 -2.975563e-07
 -2.657566e-07
 -2.408232e-07
 -2.201764e-07
 -2.025769e-07
 -1.874055e-07
 -1.744445e-07
 -1.639335e-07
 -1.569050e-07
 -1.560312e-07
 -1.676254e-07
 -2.059390e-07
 -2.967738e-07
 -3.012681e-07
 1.006932e-08
 2.820718e-07
 2.497197e-07
 1.698678e-07
 1.346053e-07
 1.514676e-07
 2.367692e-07
 3.083688e-07
 1.123055e-07
 -8.235232e-08
 -1.263671e-08
 -1.607839e-07
 -3.667235e-07
 -2.405965e-07
 -1.110366e-07
 -2.379148e-07
 -3.133397e-07
 1.453378e-07
 5.216509e-07
 3.805263e-07
 2.105648e-07
 1.345053e-07
 4.237468e-08
 1.744035e-05
 -6.389728e-08
 -4.392623e-08
 -3.505354e-08
 0.000000e+00
 0.000000e+00
 -8.150353e-08
 -1.480212e-07
 -2.270798e-07
 -3.555877e-07
 -4.677709e-07
 -4.840197e-07
 -4.380363e-07
 -3.838561e-07
 -3.377497e-07
 -2.999831e-07
 -2.686142e-07
 -2.420014e-07
 -2.189997e-07
 -1.988412e-07
 -1.810689e-07
 -1.655962e-07
 -1.529912e-07
 -1.453329e-07
 -1.489112e-07
 -1.841107e-07
 -3.290194e-07
 -1.371772e-06
 -2.761670e-08
 9.076990e-07
 2.898523e-07
 1.444225e-07
 1.117187e-07
 1.216312e-07
 1.472137e-07
 1.422587e-07
 6.475910e-08
 -3.136272e-08
 -1.142707e-07
 -2.747793e-07
 -3.595392e-07
 -8.738172e-08
 1.123903e-07
 -2.309663e-07
 -2.453527e-06
 1.044229e-07
 1.869310e-06
 5.775254e-07
 2.927993e-07
 3.436326e-07
 9.295663e-07
 -1.690306e-08
 -1.356727e-06
 -2.898158e-07
 -1.000407e-07
 0.000000e+00
 0.000000e+00
 -1.757201e-07
 -3.094039e-07
 -4.002084e-07
 -4.659094e-07
 -5.027225e-07
 -4.986785e-07
 -4.631497e-07
 -4.159361e-07
 -3.694564e-07
 -3.279023e-07
 -2.917357e-07
 -2.602759e-07
 -2.326278e-07
 -2.079471e-07
 -1.854902e-07
 -1.646040e-07
 -1.446931e-07
 -1.251478e-07
 -1.051078e-07
 -8.240032e-08
 -4.762621e-08
 -5.631736e-08
 1.742244e-05
 -1.725236e-08
 3.019207e-08
 3.422547e-08
 5.127558e-08
 7.107476e-08
 8.407417e-08
 7.442966e-08
 3.294052e-08
 -2.983237e-08
 -1.130787e-07
 -2.850152e-07
 -1.324710e-06
 4.332457e-08
 9.991862e-07
 4.037864e-07
 1.735905e-07
 3.501675e-05
 6.172139e-08
 1.156375e-07
 1.234775e-07
 2.045161e-07
 2.506859e-07
 -5.342349e-10
 -2.844943e-07
 -2.433095e-07
 -1.035252e-07
 0.000000e+00
 0.000000e+00
 -3.213262e-07
 -5.174458e-07
 -5.925876e-07
 -6.031902e-07
 -5.839135e-07
 -5.465636e-07
 -4.980279e-07
 -4.458394e-07
 -3.957025e-07
 -3.502873e-07
 -3.101300e-07
 -2.747517e-07
 -2.433068e-07
 -2.148446e-07
 -1.883510e-07
 -1.626373e-07
 -1.360018e-07
 -1.053157e-07
 -6.325367e-08
 1.145583e-08
 1.947331e-07
 8.505853e-07
 -4.563899e-08
 -1.350312e-06
 -2.684075e-07
 -8.497338e-08
 -1.232119e-08
 2.564046e-08
 4.439859e-08
 4.348622e-08
 2.118329e-08
 -1.773046e-08
 -5.139356e-08
 -1.565495e-08
 7.112722e-08
 1.767068e-05
 3.447369e-07
 6.811039e-07
 1.913803e-06
 6.064731e-08
 -2.596027e-06
 -4.642021e-07
 -1.140880e-07
 1.713517e-08
 4.231980e-08
 -3.361874e-08
 -1.218566e-07
 -1.265076e-07
 -7.019496e-08
 0.000000e+00
 0.000000e+00
 -6.227641e-07
 -8.533996e-07
 -8.433537e-07
 -7.662469e-07
 -6.828908e-07
 -6.059668e-07
 -5.361613e-07
 -4.731203e-07
 -4.168741e-07
 -3.672616e-07
 -3.236947e-07
 -2.852821e-07
 -2.509965e-07
 -2.197494e-07
 -1.903595e-07
 -1.613939e-07
 -1.308006e-07
 -9.510415e-08
 -4.768294e-08
 2.418132e-08
 1.364917e-07
 2.055722e-07
 -2.633478e-08
 -2.969836e-07
 -2.527412e-07
 -1.234682e-07
 -4.830855e-08
 -2.792421e-09
 2.432911e-08
 3.513985e-08
 2.777502e-08
 -1.956557e-09
 -5.424934e-08
 9.178684e-08
 1.039585e-06
 4.261707e-07
 -8.418312e-07
 3.182197e-07
 5.356148e-07
 6.681146e-08
 -4.966824e-07
 -4.323455e-07
 -1.985999e-07
 -8.081073e-08
 -4.060910e-08
 -5.114798e-08
 -7.308146e-08
 -7.133108e-08
 -4.228187e-08
 0.000000e+00
 0.000000e+00
 -1.458451e-06
 -1.405128e-06
 -1.140858e-06
 -9.289406e-07
 -7.740761e-07
 -6.583079e-07
 -5.676249e-07
 -4.935554e-07
 -4.313303e-07
 -3.781401e-07
 -3.320851e-07
 -2.916786e-07
 -2.556352e-07
 -2.227604e-07
 -1.918515e-07
 -1.615649e-07
 -1.302239e-07
 -9.559960e-08
 -5.500811e-08
 -7.461006e-09
 3.594069e-08
 3.354495e-08
 -5.073854e-08
 -1.426917e-07
 -1.532359e-07
 -1.084670e-07
 -5.743833e-08
 -1.429075e-08
 2.003146e-08
 4.463638e-08
 5.627684e-08
 4.253451e-08
 -5.851660e-08
 -1.013816e-06
 3.843962e-07
 1.089894e-06
 2.231643e-07
 1.391957e-07
 1.596905e-07
 -2.749785e-09
 -1.952241e-07
 -2.335368e-07
 -1.694857e-07
 -1.044739e-07
 -6.876984e-08
 -5.758947e-08
 -5.505790e-08
 -4.633925e-08
 -2.667161e-08
 0.000000e+00
 0.000000e+00
 -3.512730e-06
 -1.986474e-06
 -1.366986e-06
 -1.033414e-06
 -8.271998e-07
 -6.865384e-07
 -5.830808e-07
 -5.024506e-07
 -4.368877e-07
 -3.819450e-07
 -3.348581e-07
 -2.937271e-07
 -2.571050e-07
 -2.237836e-07
 -1.926674e-07
 -1.626942e-07
 -1.328163e-07
 -1.021593e-07
 -7.071037e-08
 -4.126443e-08
 -2.271639e-08
 -2.911256e-08
 -6.318886e-08
 -9.956517e-08
 -1.094769e-07
 -9.119409e-08
 -5.746665e-08
 -1.718028e-08
 2.514929e-08
 6.616601e-08
 1.050174e-07
 1.463343e-07
 2.035953e-07
 2.145799e-07
 1.767242e-05
 1.363730e-07
 8.060937e-08
 4.438629e-08
 2.767796e-08
 -3.456320e-08
 -1.084645e-07
 -1.386510e-07
 -1.241632e-07
 -9.481272e-08
 -7.058977e-08
 -5.557644e-08
 -4.530048e-08
 -3.385993e-08
 -1.843915e-08
 0.000000e+00
 0.000000e+00
 -3.698028e-06
 -1.944323e-06
 -1.348799e-06
 -1.023145e-06
 -8.194638e-07
 -6.796323e-07
 -5.767192e-07
 -4.967892e-07
 -4.320844e-07
 -3.780274e-07
 -3.317460e-07
 -2.913042e-07
 -2.552918e-07
 -2.226058e-07
 -1.923389e-07
 -1.637445e-07
 -1.362974e-07
 -1.099180e-07
 -8.547936e-08
 -6.558397e-08
 -5.485494e-08
 -5.766274e-08
 -7.250618e-08
 -8.927792e-08
 -9.628136e-08
 -8.799453e-08
 -6.330613e-08
 -2.210538e-08
 3.196138e-08
 9.083122e-08
 1.525134e-07
 2.371842e-07
 4.230859e-07
 1.070738e-06
 1.441997e-07
 -1.216516e-06
 -1.966121e-07
 -6.296523e-08
 -3.658799e-08
 -5.162379e-08
 -7.850182e-08
 -9.361950e-08
 -9.067203e-08
 -7.714887e-08
 -6.182360e-08
 -4.865272e-08
 -3.734768e-08
 -2.606039e-08
 -1.356432e-08
 0.000000e+00
 0.000000e+00
 -1.165053e-06
 -1.319001e-06
 -1.099154e-06
 -9.026508e-07
 -7.522589e-07
 -6.377263e-07
 -5.483159e-07
 -4.763957e-07
 -4.168999e-07
 -3.664809e-07
 -3.228771e-07
 -2.845002e-07
 -2.501827e-07
 -2.190336e-07
 -1.903702e-07
 -1.637139e-07
 -1.388591e-07
 -1.160293e-07
 -9.611334e-08
 -8.083117e-08
 -7.241963e-08
 -7.235977e-08
 -7.959607e-08
 -9.018373e-08
 -9.915077e-08
 -1.010840e-07
 -8.633392e-08
 -4.106236e-08
 3.489325e-08
 1.162307e-07
 1.840786e-07
 2.530915e-07
 3.508914e-07
 3.980786e-07
 1.347301e-07
 -1.772086e-07
 -1.784301e-07
 -9.324992e-08
 -6.090719e-08
 -5.706003e-08
 -6.392993e-08
 -6.921128e-08
 -6.768778e-08
 -6.028794e-08
 -5.015143e-08
 -3.962376e-08
 -2.952670e-08
 -1.973242e-08
 -9.923968e-09
 0.000000e+00
 0.000000e+00
 -5.416645e-07
 -7.886232e-07
 -8.029201e-07
 -7.335089e-07
 -6.495629e-07
 -5.712756e-07
 -5.028496e-07
 -4.438570e-07
 -3.928133e-07
 -3.482270e-07
 -3.088484e-07
 -2.736809e-07
 -2.419384e-07
 -2.130080e-07
 -1.864370e-07
 -1.619509e-07
 -1.395069e-07
 -1.193777e-07
 -1.022303e-07
 -8.910611e-08
 -8.116656e-08
 -7.919010e-08
 -8.319361e-08
 -9.281751e-08
 -1.083244e-07
 -1.294314e-07
 -1.421255e-07
 -9.683526e-08
 3.374818e-08
 1.624630e-07
 2.173266e-07
 2.344440e-07
 2.425129e-07
 2.083858e-07
 9.279444e-08
 -3.279520e-08
 -7.917432e-08
 -7.134583e-08
 -5.803062e-08