<VTKFile type="UnstructuredGrid"  version="0.1"   >
<UnstructuredGrid>  
<Piece  NumberOfPoints="     2601"  NumberOfCells="     5000">  
<Points>  
<DataArray  type="Float64"  NumberOfComponents="3"  format="ascii">  
 0.000000 0.000000 0.000000 
 0.020000 0.000000 0.000000 
 0.040000 0.000000 0.000000 
 0.060000 0.000000 0.000000 
 0.080000 0.000000 0.000000 
 0.100000 0.000000 0.000000 
 0.120000 0.000000 0.000000 
 0.140000 0.000000 0.000000 
 0.160000 0.000000 0.000000 
 0.180000 0.000000 0.000000 
 0.200000 0.000000 0.000000 
 0.220000 0.000000 0.000000 
 0.240000 0.000000 0.000000 
 0.260000 0.000000 0.000000 
 0.280000 0.000000 0.000000 
 0.300000 0.000000 0.000000 
 0.320000 0.000000 0.000000 
 0.340000 0.000000 0.000000 
 0.360000 0.000000 0.000000 
 0.380000 0.000000 0.000000 
 0.400000 0.000000 0.000000 
 0.420000 0.000000 0.000000 
 0.440000 0.000000 0.000000 
 0.460000 0.000000 0.000000 
 0.480000 0.000000 0.000000 
 0.500000 0.000000 0.000000 
 0.520000 0.000000 0.000000 
 0.540000 0.000000 0.000000 
 0.560000 0.000000 0.000000 
 0.580000 0.000000 0.000000 
 0.600000 0.000000 0.000000 
 0.620000 0.000000 0.000000 
 0.640000 0.000000 0.000000 
 0.660000 0.000000 0.000000 
 0.680000 0.000000 0.000000 
 0.700000 0.000000 0.000000 
 0.720000 0.000000 0.000000 
 0.740000 0.000000 0.000000 
 0.760000 0.000000 0.000000 
 0.780000 0.000000 0.000000 
 0.800000 0.000000 0.000000 
 0.820000 0.000000 0.000000 
 0.840000 0.000000 0.000000 
 0.860000 0.000000 0.000000 
 0.880000 0.000000 0.000000 
 0.900000 0.000000 0.000000 
 0.920000 0.000000 0.000000 
 0.940000 0.000000 0.000000 
 0.960000 0.000000 0.000000 
 0.980000 0.000000 0.000000 
 1.000000 0.000000 0.000000 
 0.000000 0.020000 0.000000 
 0.020000 0.020000 0.000000 
 0.040000 0.020000 0.000000 
 0.060000 0.020000 0.000000 
 0.080000 0.020000 0.000000 
 0.100000 0.020000 0.000000 
 0.120000 0.020000 0.000000 
 0.140000 0.020000 0.000000 
 0.160000 0.020000 0.000000 
 0.180000 0.020000 0.000000 
 0.200000 0.020000 0.000000 
 0.220000 0.020000 0.000000 
 0.240000 0.020000 0.000000 
 0.260000 0.020000 0.000000 
 0.280000 0.020000 0.000000 
 0.300000 0.020000 0.000000 
 0.320000 0.020000 0.000000 
 0.340000 0.020000 0.000000 
 0.360000 0.020000 0.000000 
 0.380000 0.020000 0.000000 
 0.400000 0.020000 0.000000 
 0.420000 0.020000 0.000000 
 0.440000 0.020000 0.000000 
 0.460000 0.020000 0.000000 
 0.480000 0.020000 0.000000 
 0.500000 0.020000 0.000000 
 0.520000 0.020000 0.000000 
 0.540000 0.020000 0.000000 
 0.560000 0.020000 0.000000 
 0.580000 0.020000 0.000000 
 0.600000 0.020000 0.000000 
 0.620000 0.020000 0.000000 
 0.640000 0.020000 0.000000 
 0.660000 0.020000 0.000000 
 0.680000 0.020000 0.000000 
 0.700000 0.020000 0.000000 
 0.720000 0.020000 0.000000 
 0.740000 0.020000 0.000000 
 0.760000 0.020000 0.000000 
 0.780000 0.020000 0.000000 
 0.800000 0.020000 0.000000 
 0.820000 0.020000 0.000000 
 0.840000 0.020000 0.000000 
 0.860000 0.020000 0.000000 
 0.880000 0.020000 0.000000 
 0.900000 0.020000 0.000000 
 0.920000 0.020000 0.000000 
 0.940000 0.020000 0.000000 
 0.960000 0.020000 0.000000 
 0.980000 0.020000 0.000000 
 1.000000 0.020000 0.000000 
 0.000000 0.040000 0.000000 
 0.020000 0.040000 0.000000 
 0.040000 0.040000 0.000000 
 0.060000 0.040000 0.000000 
 0.080000 0.040000 0.000000 
 0.100000 0.040000 0.000000 
 0.120000 0.040000 0.000000 
 0.140000 0.040000 0.000000 
 0.160000 0.040000 0.000000 
 0.180000 0.040000 0.000000 
 0.200000 0.040000 0.000000 
 0.220000 0.040000 0.000000 
 0.240000 0.040000 0.000000 
 0.260000 0.040000 0.000000 
 0.280000 0.040000 0.000000 
 0.300000 0.040000 0.000000 
 0.320000 0.040000 0.000000 
 0.340000 0.040000 0.000000 
 0.360000 0.040000 0.000000 
 0.380000 0.040000 0.000000 
 0.400000 0.040000 0.000000 
 0.420000 0.040000 0.000000 
 0.440000 0.040000 0.000000 
 0.460000 0.040000 0.000000 
 0.480000 0.040000 0.000000 
 0.500000 0.040000 0.000000 
 0.520000 0.040000 0.000000 
 0.540000 0.040000 0.000000 
 0.560000 0.040000 0.000000 
 0.580000 0.040000 0.000000 
 0.600000 0.040000 0.000000 
 0.620000 0.040000 0.000000 
 0.640000 0.040000 0.000000 
 0.660000 0.040000 0.000000 
 0.680000 0.040000 0.000000 
 0.700000 0.040000 0.000000 
 0.720000 0.040000 0.000000 
 0.740000 0.040000 0.000000 
 0.760000 0.040000 0.000000 
 0.780000 0.040000 0.000000 
 0.800000 0.040000 0.000000 
 0.820000 0.040000 0.000000 
 0.840000 0.040000 0.000000 
 0.860000 0.040000 0.000000 
 0.880000 0.040000 0.000000 
 0.900000 0.040000 0.000000 
 0.920000 0.040000 0.000000 
 0.940000 0.040000 0.000000 
 0.960000 0.040000 0.000000 
 0.980000 0.040000 0.000000 
 1.000000 0.040000 0.000000 
 0.000000 0.060000 0.000000 
 0.020000 0.060000 0.000000 
 0.040000 0.060000 0.000000 
 0.060000 0.060000 0.000000 
 0.080000 0.060000 0.000000 
 0.100000 0.060000 0.000000 
 0.120000 0.060000 0.000000 
 0.140000 0.060000 0.000000 
 0.160000 0.060000 0.000000 
 0.180000 0.060000 0.000000 
 0.200000 0.060000 0.000000 
 0.220000 0.060000 0.000000 
 0.240000 0.060000 0.000000 
 0.260000 0.060000 0.000000 
 0.280000 0.060000 0.000000 
 0.300000 0.060000 0.000000 
 0.320000 0.060000 0.000000 
 0.340000 0.060000 0.000000 
 0.360000 0.060000 0.000000 
 0.380000 0.060000 0.000000 
 0.400000 0.060000 0.000000 
 0.420000 0.060000 0.000000 
 0.440000 0.060000 0.000000 
 0.460000 0.060000 0.000000 
 0.480000 0.060000 0.000000 
 0.500000 0.060000 0.000000 
 0.520000 0.060000 0.000000 
 0.540000 0.060000 0.000000 
 0.560000 0.060000 0.000000 
 0.580000 0.060000 0.000000 
 0.600000 0.060000 0.000000 
 0.620000 0.060000 0.000000 
 0.640000 0.060000 0.000000 
 0.660000 0.060000 0.000000 
 0.680000 0.060000 0.000000 
 0.700000 0.060000 0.000000 
 0.720000 0.060000 0.000000 
 0.740000 0.060000 0.000000 
 0.760000 0.060000 0.000000 
 0.780000 0.060000 0.000000 
 0.800000 0.060000 0.000000 
 0.820000 0.060000 0.000000 
 0.840000 0.060000 0.000000 
 0.860000 0.060000 0.000000 
 0.880000 0.060000 0.000000 
 0.900000 0.060000 0.000000 
 0.920000 0.060000 0.000000 
 0.940000 0.060000 0.000000 
 0.960000 0.060000 0.000000 
 0.980000 0.060000 0.000000 
 1.000000 0.060000 0.000000 
 0.000000 0.080000 0.000000 
 0.020000 0.080000 0.000000 
 0.040000 0.080000 0.000000 
 0.060000 0.080000 0.000000 
 0.080000 0.080000 0.000000 
 0.100000 0.080000 0.000000 
 0.120000 0.080000 0.000000 
 0.140000 0.080000 0.000000 
 0.160000 0.080000 0.000000 
 0.180000 0.080000 0.000000 
 0.200000 0.080000 0.000000 
 0.220000 0.080000 0.000000 
 0.240000 0.080000 0.000000 
 0.260000 0.080000 0.000000 
 0.280000 0.080000 0.000000 
 0.300000 0.080000 0.000000 
 0.320000 0.080000 0.000000 
 0.340000 0.080000 0.000000 
 0.360000 0.080000 0.000000 
 0.380000 0.080000 0.000000 
 0.400000 0.080000 0.000000 
 0.420000 0.080000 0.000000 
 0.440000 0.080000 0.000000 
 0.460000 0.080000 0.000000 
 0.480000 0.080000 0.000000 
 0.500000 0.080000 0.000000 
 0.520000 0.080000 0.000000 
 0.540000 0.080000 0.000000 
 0.560000 0.080000 0.000000 
 0.580000 0.080000 0.000000 
 0.600000 0.080000 0.000000 
 0.620000 0.080000 0.000000 
 0.640000 0.080000 0.000000 
 0.660000 0.080000 0.000000 
 0.680000 0.080000 0.000000 
 0.700000 0.080000 0.000000 
 0.720000 0.080000 0.000000 
 0.740000 0.080000 0.000000 
 0.760000 0.080000 0.000000 
 0.780000 0.080000 0.000000 
 0.800000 0.080000 0.000000 
 0.820000 0.080000 0.000000 
 0.840000 0.080000 0.000000 
 0.860000 0.080000 0.000000 
 0.880000 0.080000 0.000000 
 0.900000 0.080000 0.000000 
 0.920000 0.080000 0.000000 
 0.940000 0.080000 0.000000 
 0.960000 0.080000 0.000000 
 0.980000 0.080000 0.000000 
 1.000000 0.080000 0.000000 
 0.000000 0.100000 0.000000 
 0.020000 0.100000 0.000000 
 0.040000 0.100000 0.000000 
 0.060000 0.100000 0.000000 
 0.080000 0.100000 0.000000 
 0.100000 0.100000 0.000000 
 0.120000 0.100000 0.000000 
 0.140000 0.100000 0.000000 
 0.160000 0.100000 0.000000 
 0.180000 0.100000 0.000000 
 0.200000 0.100000 0.000000 
 0.220000 0.100000 0.000000 
 0.240000 0.100000 0.000000 
 0.260000 0.100000 0.000000 
 0.280000 0.100000 0.000000 
 0.300000 0.100000 0.000000 
 0.320000 0.100000 0.000000 
 0.340000 0.100000 0.000000 
 0.360000 0.100000 0.000000 
 0.380000 0.100000 0.000000 
 0.400000 0.100000 0.000000 
 0.420000 0.100000 0.000000 
 0.440000 0.100000 0.000000 
 0.460000 0.100000 0.000000 
 0.480000 0.100000 0.000000 
 0.500000 0.100000 0.000000 
 0.520000 0.100000 0.000000 
 0.540000 0.100000 0.000000 
 0.560000 0.100000 0.000000 
 0.580000 0.100000 0.000000 
 0.600000 0.100000 0.000000 
 0.620000 0.100000 0.000000 
 0.640000 0.100000 0.000000 
 0.660000 0.100000 0.000000 
 0.680000 0.100000 0.000000 
 0.700000 0.100000 0.000000 
 0.720000 0.100000 0.000000 
 0.740000 0.100000 0.000000 
 0.760000 0.100000 0.000000 
 0.780000 0.100000 0.000000 
 0.800000 0.100000 0.000000 
 0.820000 0.100000 0.000000 
 0.840000 0.100000 0.000000 
 0.860000 0.100000 0.000000 
 0.880000 0.100000 0.000000 
 0.900000 0.100000 0.000000 
 0.920000 0.100000 0.000000 
 0.940000 0.100000 0.000000 
 0.960000 0.100000 0.000000 
 0.980000 0.100000 0.000000 
 1.000000 0.100000 0.000000 
 0.000000 0.120000 0.000000 
 0.020000 0.120000 0.000000 
 0.040000 0.120000 0.000000 
 0.060000 0.120000 0.000000 
 0.080000 0.120000 0.000000 
 0.100000 0.120000 0.000000 
 0.120000 0.120000 0.000000 
 0.140000 0.120000 0.000000 
 0.160000 0.120000 0.000000 
 0.180000 0.120000 0.000000 
 0.200000 0.120000 0.000000 
 0.220000 0.120000 0.000000 
 0.240000 0.120000 0.000000 
 0.260000 0.120000 0.000000 
 0.280000 0.120000 0.000000 
 0.300000 0.120000 0.000000 
 0.320000 0.120000 0.000000 
 0.340000 0.120000 0.000000 
 0.360000 0.120000 0.000000 
 0.380000 0.120000 0.000000 
 0.400000 0.120000 0.000000 
 0.420000 0.120000 0.000000 
 0.440000 0.120000 0.000000 
 0.460000 0.120000 0.000000 
 0.480000 0.120000 0.000000 
 0.500000 0.120000 0.000000 
 0.520000 0.120000 0.000000 
 0.540000 0.120000 0.000000 
 0.560000 0.120000 0.000000 
 0.580000 0.120000 0.000000 
 0.600000 0.120000 0.000000 
[...]
<PointData  Scalars="U"> 
<DataArray  type="Float64"  Name="U"  format="ascii"> 
 0.000000e+00
 0.000000e+00
 0.000000e+00
 0.000000e+00
 0.000000e+00
 0.000000e+00
 0.000000e+00
 0.000000e+00
 0.000000e+00
 0.000000e+00
 0.000000e+00
 0.000000e+00
 0.000000e+00
 0.000000e+00
 0.000000e+00
 0.000000e+00
 0.000000e+00
 0.000000e+00
 0.000000e+00
 0.000000e+00
 0.000000e+00
 0.000000e+00
 0.000000e+00
 0.000000e+00
 0.000000e+00
 0.000000e+00
 0.000000e+00
 0.000000e+00
 0.000000e+00
 0.000000e+00
 0.000000e+00
 0.000000e+00
 0.000000e+00
 0.000000e+00
 0.000000e+00
 0.000000e+00
 0.000000e+00
 0.000000e+00
 0.000000e+00
 0.000000e+00
 0.000000e+00
 0.000000e+00
 0.000000e+00
 0.000000e+00
 0.000000e+00
 0.000000e+00
 0.000000e+00
 0.000000e+00
 0.000000e+00
 0.000000e+00
 0.000000e+00
 0.000000e+00
 -6.048040e-08
 -9.328344e-08
 -8.032744e-08
 -1.115694e-08
 1.344948e-07
 1.552422e-07
 1.736045e-05
 -2.993735e-07
 -1.774748e-07
 -7.854069e-08
 -4.638838e-10
 1.570026e-07
 2.453601e-07
 1.749169e-05
 -2.261099e-07
 -2.215638e-07
 -2.854985e-07
 -3.288909e-07
 -2.009058e-07
 -1.066474e-06
 5.145252e-08
 6.394220e-07
 -1.541388e-07
 -2.817585e-08
 3.411897e-07
 4.662726e-07
 1.285323e-07
 1.605619e-05
 -2.621529e-07
 8.108538e-07
 1.648179e-07
 -2.567745e-09
 -3.324990e-08
 -3.140023e-08
 -2.416693e-08
 -1.702177e-08
 -1.102785e-08
 -7.158412e-09
 -7.844910e-09
 -1.973284e-08
 -6.023427e-08
 -1.649793e-07
 -2.095331e-07
 3.602039e-08
 2.423875e-07
 1.521884e-07
 -7.679401e-08
 -1.236350e-06
 -1.965225e-07
 0.000000e+00
 0.000000e+00
 -1.505991e-07
 -2.340780e-07
 -2.155263e-07
 -9.260418e-08
 1.461349e-07
 7.882854e-07
 -1.741916e-07
 -1.472757e-06
 -3.207970e-07
 -1.152278e-07
 -7.735089e-08
 1.015060e-07
 9.984603e-07
 2.170655e-07
 -1.276491e-06
 -3.804919e-07
 -4.197179e-07
 -1.448788e-06
 -8.399739e-08
 8.481223e-07
 1.762650e-05
 -2.835483e-07
 -1.626459e-06
 -4.050422e-07
 1.101574e-06
 1.070154e-06
 1.231041e-06
 -1.180175e-06
 1.598121e-05
 3.774301e-07
 -5.118500e-08
 -1.094760e-07
 -8.853796e-08
 -6.549834e-08
 -4.780603e-08
 -3.292806e-08
 -2.013793e-08
 -1.035655e-08
 -6.113039e-09
 -1.452447e-08
 -5.812922e-08
 -2.187955e-07
 -1.287206e-06
 2.612627e-08
 9.383575e-07
 3.153576e-07
 1.816069e-07
 9.231571e-08
 1.748205e-05
 0.000000e+00
 0.000000e+00
 -3.143751e-07
 -4.829635e-07
 -4.568887e-07
 -2.675281e-07
 -5.705634e-08
 -4.633790e-08
 -3.288986e-07
 -3.483278e-07
 -7.179370e-08
 -7.350084e-09
 -1.186682e-07
 -1.086714e-06
 2.716349e-07
 8.982890e-07
 -6.405609e-08
 -2.171989e-07
 -1.609551e-07
 -1.904379e-07
 1.743044e-05
 8.903640e-07
 2.158665e-07
 -1.260792e-06
 -6.321831e-07
 1.485335e-05
 1.431429e-07
 2.142253e-06
 1.025659e-06
 9.460840e-07
 1.697969e-05
 -1.848004e-06
 -5.719371e-07
 -2.606549e-07
 -1.373686e-07
 -9.376495e-08
 -6.914464e-08
 -4.698183e-08
 -2.643152e-08
 -8.620653e-09
 6.293347e-09
 1.898147e-08
 3.127098e-08
 5.227940e-08
 2.805921e-08
 1.749580e-05
 6.304124e-08
 1.621545e-07
 3.412884e-07
 1.032142e-06
 2.738647e-07
 0.000000e+00
 0.000000e+00
 -6.461485e-07
 -9.345800e-07
 -8.873084e-07
 -4.632068e-07
 -1.148390e-07
 -2.433205e-07
 -1.419902e-06
 -1.951439e-07
 7.227098e-07
 1.623151e-07
 1.019346e-07
 8.929742e-08
 1.753426e-05
 -1.901037e-08
 -7.965074e-08
 -6.514592e-08
 1.144782e-07
 6.934955e-07
 -1.142974e-06
 -1.042429e-06
 7.663984e-07
 2.052837e-07
 8.293797e-07
 -8.926517e-09
 3.370782e-05
 -1.331671e-08
 4.020672e-07
 9.174015e-07
 -4.962759e-07
 -2.186265e-06
 -7.895057e-07
 -2.230333e-07
 -1.166091e-07
 -1.110963e-07
 -8.991432e-08
 -5.950147e-08
 -2.975564e-08
 -3.860127e-09
 2.101296e-08
 5.356515e-08
 1.164386e-07
 2.868933e-07
 9.314393e-07
 3.102653e-08
 -1.259529e-06
 -1.255003e-07
 1.725730e-07
 3.496914e-07
 2.446254e-07
 0.000000e+00
 0.000000e+00
 -1.478854e-06
 -1.528772e-06
 -2.260715e-06
 -6.720115e-07
 4.439392e-07
 -3.232505e-08
 -1.374466e-07
 1.731486e-05
 -1.087665e-07
 1.523755e-08
 2.154032e-07
 8.907960e-07
 -1.018714e-08
 -1.344144e-06
 -2.792749e-07
 -5.334507e-08
 1.442335e-07
 3.040348e-07
 1.157852e-07
 1.734737e-05
 -5.530152e-08
 2.240169e-07
 6.746124e-07
 1.815875e-06
 -1.898007e-07
 -2.712746e-06
 -4.029229e-07
 -1.081972e-07
 -5.624418e-07
 -2.008940e-06
 -6.663730e-07
 4.179191e-07
 -8.958542e-08
 -1.513471e-07
 -1.192860e-07
 -7.007894e-08
 -2.824439e-08
 2.718745e-09
 2.975834e-08
 6.415283e-08
 1.216368e-07
 2.198938e-07
 2.766936e-07
 3.678531e-08
 -2.319282e-07
 -1.652100e-07
 1.097086e-08
 1.165712e-07
 1.040594e-07
 0.000000e+00
 0.000000e+00
 -3.483253e-06
 -1.843135e-06
 -1.156256e-06
 1.667068e-05
 -5.113004e-07
 -9.680182e-08
 7.007260e-07
 -1.337679e-07
 -1.405840e-06
 -2.632683e-07
 2.987875e-08
 1.683326e-07
 -3.486971e-08
 -2.931904e-07
 -2.293049e-07
 -4.903698e-08
 1.244730e-07
 3.467932e-07
 9.501570e-07
 -1.649404e-08
 -1.299142e-06
 -7.361797e-08
 3.464626e-07
 5.065744e-07
 3.988135e-09
 -5.401035e-07
 -4.508933e-07
 -2.766937e-07
 -3.202138e-07
 -4.687715e-07
 1.696260e-05
 -4.443401e-07
 -3.381068e-07
 -2.606631e-07
 -1.597879e-07
 -6.994569e-08
 -1.421081e-08
 1.372613e-08
 3.180854e-08
 5.296340e-08
 8.210164e-08
 1.089669e-07
 9.113482e-08
 -1.002847e-08
 -1.237261e-07
 -1.540105e-07
 -9.164555e-08
 2.008209e-08
 6.665695e-08
 0.000000e+00
 0.000000e+00
 -3.737358e-06
 -1.565569e-06
 -1.170406e-07
 -8.245999e-07
 -1.995841e-06
 -4.516599e-07
 9.821544e-08
 -7.048376e-08
 -3.510752e-07
 -2.822322e-07
 -1.157714e-07
 -4.501053e-08
 -8.597059e-08
 -1.483065e-07
 -1.285411e-07
 -4.012951e-08
 7.606896e-08
 2.066654e-07
 2.584548e-07
 -6.417847e-09
 -2.833420e-07
 -1.661272e-07
 1.041655e-07
 2.085511e-07
 4.300464e-08
 -1.772825e-07
 -2.379494e-07
 -1.889618e-07
 -5.749563e-08
 5.301010e-07
 -4.099644e-07
 -1.729336e-06
 -6.398420e-07
 -3.949823e-07
 -1.876520e-07
 -2.916345e-08
 2.923313e-08
 3.323069e-08
 2.958679e-08
 3.192999e-08
 3.831392e-08
 3.853200e-08
 1.604487e-08
 -3.922233e-08
 -1.212666e-07
 -2.379388e-07
 -2.639048e-07
 1.116072e-09
 1.797214e-07
 0.000000e+00
 0.000000e+00
 -2.289585e-06
 -1.050397e-06
 1.094400e-07
 -7.033610e-07
 -2.018314e-06
 -5.638372e-07
 5.287471e-07
 -7.060218e-08
 -2.377226e-07
 -2.354188e-07
 -1.688262e-07
 -1.203133e-07
 -1.115024e-07
 -1.154841e-07
 -9.770732e-08
 -5.131832e-08
 1.125902e-08
 6.586963e-08
 5.867290e-08
 -6.338259e-08
 -2.523223e-07
 -2.839727e-07
 2.952698e-08
 2.606725e-07
 1.333752e-07
 -4.157839e-08
 -1.256129e-07
 -1.296109e-07
 -7.551842e-08
 -5.646414e-08
 -3.273963e-07
 -6.402450e-07
 -6.795739e-07
 -5.502649e-07
 -1.684903e-07
 1.375308e-07
 1.225550e-07
 5.370564e-08
 1.945432e-08
 5.646492e-09
 -8.070460e-10
 -8.324789e-09
 -2.179314e-08
 -4.432162e-08
 -9.177474e-08
 -2.463243e-07
 -1.309604e-06
 -1.222073e-08
 8.288689e-07
 0.000000e+00
 0.000000e+00
 -4.727796e-07
 1.681600e-05
 -6.285632e-07
 -5.729144e-07
 -6.002236e-07
 1.693595e-05
 -4.244366e-07
 -3.295511e-07
 -2.987059e-07
 -2.489766e-07
 -1.917931e-07
 -1.471174e-07
 -1.229053e-07
 -1.109208e-07
 -9.851688e-08
 -7.934781e-08
 -5.167480e-08
 -1.778967e-08
 -6.869129e-10
 -5.001961e-08
 -2.417300e-07
 -1.334173e-06
 -3.283365e-08
 8.568282e-07
 1.859886e-07
 -1.294169e-08
 -9.276403e-08
 -1.254617e-07
 -1.417884e-07
 -1.846098e-07
 -2.903400e-07
 -4.093610e-07
 -5.487531e-07
 -1.541379e-06
 -1.580149e-07
 7.959881e-07
 1.834926e-07
 3.519582e-08
 -9.942968e-09
 -2.725393e-08
 -3.832127e-08
 -4.860641e-08
 -5.183492e-08
 -3.282015e-08
 1.306559e-08
 6.987450e-08
 5.672499e-08
 1.750443e-05
 1.712304e-08
 0.000000e+00
 0.000000e+00
 5.630248e-07
 -4.296115e-07
 -1.737515e-06
 -5.145940e-07
 3.084008e-07
 -5.018186e-07
 -1.738661e-06
 -6.050625e-07
 -3.814901e-07
 -2.720732e-07
 -1.995281e-07
 -1.502639e-07
 -1.213891e-07
 -1.083264e-07
 -1.068867e-07
 -1.157584e-07
 -1.245478e-07
 -9.058374e-08
 7.125688e-09
 8.240122e-08
 7.972488e-08
 -9.154979e-09
 1.739705e-05
 -8.781808e-08
 -6.076017e-08
 -7.751099e-08
 -1.023766e-07
 -1.410087e-07
 -1.850378e-07
 -2.261734e-07
 -2.451790e-07
 -2.177339e-07
 -1.467833e-07
 -1.250971e-07
 1.736246e-05
 -8.344080e-08
 -4.836502e-08
 -5.943876e-08
 -6.099410e-08
 -6.438121e-08
 -7.473590e-08
 -9.375269e-08
 -1.058574e-07
 -5.399088e-08
 1.113497e-07
 3.794315e-07
 1.042595e-06
 1.177552e-07
 -1.190737e-06
 0.000000e+00
 0.000000e+00
 2.415940e-09
 -2.889338e-07
 -5.702655e-07
 -4.656502e-07
 -2.887775e-07
 -4.410431e-07
 -6.481695e-07
 -5.539536e-07
 -3.819817e-07
 -2.660286e-07
 -1.848903e-07
 -1.323580e-07
 -1.041180e-07
 -9.493097e-08
 -1.044774e-07
 -1.442172e-07
 -2.405006e-07
 -2.555310e-07
 4.415863e-08
 3.246973e-07
 4.001697e-07
 8.939157e-07
 -1.214475e-07
 -1.470538e-06
 -3.450574e-07
 -1.242933e-07
 -9.690019e-08
 -1.520994e-07
 -2.288202e-07
 -2.874229e-07
 -2.535203e-07
 -7.111545e-08
 2.276906e-07
 9.084308e-07
 -2.043795e-08
 -1.365921e-06
 -3.171614e-07
 -1.597031e-07
 -1.096977e-07
 -9.427811e-08
 -1.006141e-07
 -1.363024e-07
 -2.222752e-07
 -2.120048e-07
 1.385577e-07
 4.936884e-07
 5.102517e-07
 1.939138e-07
 -9.648108e-08
 0.000000e+00
 0.000000e+00
 -9.355412e-08
 -2.442175e-07
 -3.772503e-07
 -4.061552e-07
 -3.874717e-07
 -4.099249e-07
 -4.417025e-07
 -4.118099e-07
 -3.291236e-07
 -2.283038e-07
 -1.414335e-07
 -8.977255e-08
 -6.862983e-08
 -6.476632e-08
 -7.496119e-08
 -1.167127e-07
 -2.681529e-07
 -1.317162e-06
 2.463915e-08
 9.714593e-07
 3.897004e-07
 2.065353e-07
 -2.259056e-07
 -5.832683e-07
 -3.041221e-07
 1.963951e-08
 -1.929020e-08
 -1.468858e-07
 -2.808236e-07
 -4.408012e-07
 -4.401579e-07
 -1.019722e-08
 4.248544e-07
 4.452948e-07
 8.495200e-08
 -2.718604e-07
 -2.791968e-07
 -1.824115e-07
 -1.306683e-07
 -1.051483e-07
 -9.979857e-08
 -1.285403e-07
 -2.649263e-07
 -1.292856e-06
 7.493058e-08
 1.033382e-06
 3.984015e-07
 1.600716e-07
 2.829397e-08
 0.000000e+00
 0.000000e+00
 -1.003713e-07
 -2.134572e-07
 -3.233471e-07
 -4.010236e-07
 -4.151309e-07
 -3.617629e-07
 -3.184985e-07
 -3.236795e-07
 -2.937125e-07
 -1.755786e-07
 -5.683523e-08
 -1.549783e-08
 -1.793063e-08
 -2.345969e-08
 -2.087367e-08
 -9.295694e-09
 1.810645e-08
 4.394009e-09
 1.748027e-05
 3.766892e-08
 6.443607e-08
 -3.267570e-08
 -3.125907e-07
 -1.499062e-06
 -2.210903e-07
 6.972241e-07
 5.776386e-08
 -1.411049e-07
 -2.964869e-07
 -5.838688e-07
 -1.668103e-06
 -3.692985e-08
 1.150050e-06
 4.453497e-07
 9.424515e-08
 -1.111190e-07
 -1.753814e-07
 -1.599343e-07
 -1.279795e-07
 -9.850296e-08
 -7.168209e-08
 -4.294885e-08
 -3.307276e-10
 2.075219e-09
 1.749329e-05
 5.870940e-08
 8.928890e-08
 4.974245e-08
 1.696524e-08
 0.000000e+00
 0.000000e+00
 -8.767356e-08
 -1.844693e-07
 -3.010450e-07
 -4.609956e-07
 -5.321888e-07
 -2.957543e-07
 -1.166610e-07
 -2.772579e-07
 -3.809877e-07
 -1.194002e-07
 1.329803e-07
 9.889067e-08
 2.971754e-08
 8.514729e-09
 2.490324e-08
 8.674430e-08
 2.632394e-07
 9.151871e-07
 1.589835e-08
 -1.294570e-06
 -2.298907e-07
 -8.724832e-08
 -7.194763e-08
 -1.361349e-07
 1.729973e-05
 -1.638028e-07
 -1.352140e-07
 -1.601338e-07
 -2.037996e-07
 -3.435290e-07
 -1.423582e-06
 1.737062e-05
 8.308129e-07
 2.056048e-07
 -1.440539e-08
 -1.132454e-07
 -1.487610e-07
 -1.440662e-07
 -1.207051e-07
 -8.872190e-08
 -4.475997e-08
 3.281010e-08
 2.214798e-07
 8.859190e-07
 -7.178623e-10
 -1.300712e-06
 -2.260708e-07
 -6.342681e-08
 -1.737141e-08
 0.000000e+00
 0.000000e+00
 -6.556344e-08
 -1.383977e-07
 -2.378106e-07
 -4.415320e-07
 -1.540466e-06
 -2.567371e-07
 5.950766e-07
 -2.053050e-07
 -1.421490e-06
 -1.344133e-07
 7.826974e-07
 1.636847e-07
 2.634311e-08
 6.352174e-09
 3.270272e-08
 9.611569e-08
 2.051001e-07
 2.730214e-07
 4.072428e-08
 -2.302125e-07
 -1.840170e-07
 -3.366387e-08
 1.599169e-07
 7.973439e-07
 -1.198714e-07
 -1.437232e-06
 -3.575708e-07
 -1.615255e-07
 -3.980674e-08
 1.703332e-07
 7.974858e-07
 1.735294e-05
 -1.426668e-06
 -3.435226e-07
 -2.118027e-07
 -1.780232e-07
 -1.627357e-07
 -1.444289e-07
 -1.199108e-07
 -8.852284e-08
 -4.490200e-08
 2.475879e-08
 1.389976e-07
 2.161279e-07
 -2.766646e-09
 -2.608406e-07
 -2.117096e-07
 -8.945355e-08
 -3.046770e-08
 0.000000e+00
 0.000000e+00
 -3.752676e-08
 -7.240747e-08
 -1.007052e-07
 -1.116195e-07
 -1.597998e-07
 1.728674e-05
 -1.751565e-07
 -1.300935e-07
 -1.649010e-07
 1.730604e-05
 -1.334076e-07
 -8.028977e-08
 -6.616232e-08
 -3.462183e-08
 6.830118e-09
 5.661227e-08
 1.027037e-07
 1.031376e-07
 2.198976e-08
 -6.539012e-08
 -6.590315e-08
 5.549410e-09
 1.176601e-07
 1.786017e-07
 -6.195056e-08
 -3.343382e-07
 -2.782186e-07
 -1.110459e-07
 6.095176e-08
 3.547343e-07
 1.064223e-06
 -8.775055e-08
 -1.694147e-06
 -6.061446e-07
 -3.366730e-07
 -2.317726e-07
 -1.823982e-07
 -1.511844e-07
 -1.251249e-07
 -9.911569e-08
 -6.926534e-08
 -3.185495e-08
 7.518239e-09
 1.353845e-08
 -4.847597e-08
 -1.117851e-07
 -1.003198e-07
 -5.152951e-08
 -1.677445e-08
 0.000000e+00
 0.000000e+00
 -1.197647e-08
 -1.234807e-08
 2.311188e-08
 1.730767e-07
 8.052827e-07
 -9.723091e-08
 -1.369332e-06
 -1.401009e-07
 6.690628e-07
 -1.789382e-07
 -1.462853e-06
 -3.675278e-07
 -1.716641e-07
 -8.482510e-08
 -2.859785e-08
 1.457835e-08
 4.212913e-08
 4.244183e-08
 1.417156e-08
 -1.602866e-08
 -1.806293e-08
 9.524713e-09
 4.268003e-08
 3.300529e-08
 -5.492684e-08
 -1.433218e-07
 -1.381685e-07
 -5.779752e-08
 6.098675e-08
 2.085513e-07
 2.597825e-07
 -7.769812e-08
 -4.668688e-07
 -4.649251e-07
 -3.271491e-07
 -2.395125e-07
 -1.873366e-07
 -1.538824e-07
 -1.303664e-07
 -1.133552e-07
 -1.020616e-07
 -9.645062e-08
 -9.537717e-08
 -9.528694e-08
 -8.961762e-08
 -6.699627e-08
 -2.507653e-08
 1.129774e-08
 1.766388e-08
 0.000000e+00
 0.000000e+00
 3.542276e-09
 1.820833e-08
 5.998322e-08
 1.480298e-07
 2.028353e-07
 -2.635691e-08
 -2.645122e-07
 -1.422636e-07
 2.639010e-08
 -1.555584e-07
 -4.002755e-07
 -3.399804e-07
 -1.982307e-07
 -1.114056e-07
 -5.378174e-08
 -1.374831e-08
 1.023395e-08
 1.674982e-08
 9.156795e-09
 -1.304893e-09
 -3.471042e-09
 3.399528e-09
 7.944187e-09
 -6.487148e-09
 -4.301887e-08
 -7.516913e-08
 -7.283779e-08
 -3.411463e-08
 2.352351e-08
 6.924521e-08
 4.333217e-08
 -9.421274e-08
 -2.445061e-07
 -2.908304e-07
 -2.592039e-07
 -2.129778e-07
 -1.750295e-07
 -1.475077e-07
 -1.295153e-07
 -1.220095e-07
 -1.289853e-07
 -1.560262e-07
 -1.970006e-07
 -2.083211e-07
 -1.486707e-07
 -4.806536e-08
 5.571929e-08
 1.110453e-07
 7.891718e-08
 0.000000e+00
 0.000000e+00
 8.770129e-09
 2.318563e-08
 4.680885e-08
 7.111483e-08
 5.735168e-08
 -2.748372e-08
 -1.082079e-07
 -1.074537e-07
 -9.408866e-08
 -1.543139e-07
 -2.280718e-07
 -2.255440e-07
 -1.707064e-07
 -1.116911e-07
 -6.302908e-08
 -2.657354e-08
 -3.296498e-09
 6.895867e-09
 7.078438e-09
 3.047140e-09
 -1.018673e-10
 -1.683385e-09
 -5.782559e-09
 -1.720229e-08
 -3.462689e-08
 -4.801844e-08
 -4.687271e-08
 -3.031790e-08
 -8.519214e-09
 -3.581926e-10
 -2.754104e-08
 -9.294737e-08
 -1.623497e-07
 -1.975049e-07
 -1.956812e-07
 -1.755803e-07
 -1.520855e-07
 -1.319840e-07
 -1.187205e-07
 -1.166678e-07
 -1.349465e-07
 -1.930577e-07
 -3.261609e-07
 -4.116746e-07
 -2.447356e-07
 -3.649664e-08
 1.838998e-07
 3.193680e-07
 1.832103e-07
 0.000000e+00
 0.000000e+00
 8.186681e-09
 1.753592e-08
 2.670743e-08
 2.843862e-08
 1.025509e-08
 -2.996384e-08
 -6.954475e-08
 -8.959568e-08
 -1.047837e-07
 -1.337109e-07
 -1.618897e-07
 -1.640946e-07
 -1.390708e-07
 -1.005019e-07
 -6.016725e-08
 -2.607120e-08
 -3.175458e-09
 7.616450e-09
 9.109208e-09
 5.671341e-09
 7.757581e-10
 -4.477205e-09
 -1.106820e-08
 -2.004761e-08
 -3.012606e-08
 -3.737129e-08
 -3.822598e-08
 -3.319878e-08
 -2.799643e-08
 -3.172003e-08
 -5.188278e-08
 -8.670860e-08
 -1.226424e-07
 -1.448391e-07
 -1.489429e-07
 -1.400498e-07
 -1.252513e-07
 -1.097946e-07
 -9.745128e-08
 -9.262437e-08
 -1.042018e-07
 -1.566189e-07
 -3.359568e-07
 -1.451494e-06
 -2.956857e-07
 -4.500547e-07
 2.278611e-07
 9.659298e-07
 2.485223e-07
 0.000000e+00
 0.000000e+00
 6.074241e-09
 1.102684e-08
 1.263882e-08
 7.132545e-09
 -8.866580e-09
 -3.350139e-08
 -5.845502e-08
 -7.756641e-08
 -9.376796e-08
 -1.116868e-07
 -1.275931e-07
 -1.323683e-07
 -1.200303e-07
 -9.047851e-08
 -5.064094e-08
 -1.362940e-08
 9.725015e-09
 1.790286e-08
 1.589213e-08
 9.304855e-09
 1.610270e-09
 -5.963604e-09
 -1.351222e-08
 -2.123635e-08
 -2.849903e-08
 -3.388478e-08
 -3.640624e-08
 -3.690231e-08
 -3.840693e-08
 -4.497035e-08
 -5.910237e-08
 -7.909151e-08
 -9.892257e-08
 -1.120247e-07
 -1.153690e-07
 -1.099915e-07
 -9.879602e-08
 -8.456688e-08
 -6.927596e-08
 -5.414504e-08
 -3.968077e-08
 -2.468281e-08
 7.117825e-12
 -1.932267e-08
 1.745824e-05
 -2.738810e-08
 1.746167e-05
 -1.070713e-08
 1.630607e-08
 0.000000e+00
 0.000000e+00
 4.891016e-09
 7.530764e-09
 5.632716e-09
 -2.727126e-09
 -1.787926e-08
 -3.710718e-08
 -5.528845e-08
 -6.882979e-08
 -7.911742e-08
 -9.060563e-08
 -1.052351e-07
 -1.187302e-07
 -1.193774e-07
 -9.210003e-08
 -3.786212e-08
 1.440350e-08
 3.895131e-08
 3.835429e-08
 2.682061e-08
 1.365041e-08
 2.094928e-09
 -7.486886e-09
 -1.561042e-08
 -2.271831e-08
 -2.881361e-08
 -3.360013e-08
 -3.702326e-08
 -3.980921e-08
 -4.351582e-08
 -4.987104e-08
 -5.961055e-08
 -7.152691e-08
 -8.265275e-08
 -8.973112e-08
 -9.080928e-08
 -8.568718e-08
 -7.521825e-08
 -6.027710e-08
 -4.084209e-08
 -1.480199e-08
 2.512669e-08
 1.020416e-07
 2.983795e-07
 9.992111e-07
 2.562745e-07
 -4.216578e-07
 -2.623454e-07
 -1.403832e-06
 -2.551426e-07
 0.000000e+00
 0.000000e+00
 5.942016e-09
 8.605390e-09
 5.336359e-09
 -5.225700e-09
 -2.229233e-08
 -4.201777e-08
 -5.778213e-08
 -6.398690e-08
 -6.275400e-08
 -6.527867e-08
 -8.272543e-08
 -1.167517e-07
 -1.493250e-07
 -1.272081e-07
 -2.229976e-08
 7.662246e-08
 9.495665e-08
 6.837252e-08
 3.832283e-08
 1.595336e-08
 4.878703e-10
 -1.044269e-08
 -1.863651e-08
 -2.515006e-08
 -3.047677e-08
 -3.482399e-08
 -3.843791e-08
 -4.184025e-08
 -4.580661e-08
 -5.102830e-08
 -5.760479e-08
 -6.470042e-08
 -7.068747e-08
 -7.376605e-08
 -7.263201e-08
 -6.672594e-08
 -5.596672e-08
 -4.017267e-08
 -1.830358e-08
 1.267727e-08
 5.995321e-08
 1.386364e-07
 2.707125e-07
 3.850701e-07
 2.403217e-07
 1.599337e-08
 -1.901947e-07
 -3.420802e-07
 -2.166566e-07
 0.000000e+00
 0.000000e+00
 1.037551e-08
 1.582190e-08
 1.268439e-08
 -6.855612e-10
 -2.347722e-08
 -5.092691e-08
 -7.127634e-08
 -6.850084e-08
 -4.258872e-08
 -2.325700e-08
 -4.126393e-08
 -1.077981e-07
 -2.348421e-07
 -2.751534e-07
 3.432341e-09
 2.469165e-07
 1.920201e-07
 9.559312e-08
 4.075077e-08
 1.126983e-08
 -5.522931e-09
 -1.600662e-08
 -2.324670e-08
 -2.871901e-08
 -3.312812e-08
 -3.683482e-08
 -4.011630e-08
 -4.329891e-08
 -4.673900e-08
 -5.065965e-08
 -5.493224e-08
 -5.895225e-08
 -6.172712e-08
 -6.215372e-08
 -5.931466e-08
 -5.260438e-08
 -4.161541e-08
 -2.583667e-08
 -4.241459e-09
 2.515993e-08
 6.547191e-08
 1.190156e-07
 1.768584e-07
 1.982046e-07
 1.360892e-07
 2.363386e-08
 -8.522962e-08
 -1.407244e-07
 -9.992108e-08
 0.000000e+00
 0.000000e+00
 1.996969e-08
 3.197030e-08
 3.064763e-08
 1.385657e-08
 -1.875505e-08
 -6.551815e-08
 -1.105507e-07
 -1.029616e-07
 -1.567577e-08
 6.120327e-08
 4.772734e-08
 -4.023892e-08
 -2.392517e-07
 -1.326531e-06
 -1.826182e-08
 8.876245e-07
 2.451378e-07
 7.736583e-08
 1.940830e-08
 -5.052564e-09
 -1.733702e-08
 -2.457298e-08
 -2.950550e-08
 -3.329766e-08
 -3.647122e-08
 -3.928346e-08
 -4.190299e-08
 -4.447975e-08
 -4.712945e-08
 -4.985314e-08
 -5.244148e-08
 -5.443019e-08
 -5.515142e-08
 -5.386632e-08
 -4.990685e-08
 -4.274710e-08
 -3.196958e-08
 -1.715315e-08
 2.237324e-09
 2.679136e-08
 5.651538e-08
 8.875672e-08
 1.142365e-07
 1.160289e-07
 8.263417e-08
 2.551514e-08
 -2.955645e-08
 -5.665397e-08
 -4.254088e-08
 0.000000e+00
 0.000000e+00
 3.803462e-08
 6.205028e-08
 6.435336e-08
 4.430748e-08
 1.512865e-09
 -7.329218e-08
 -2.030229e-07
 -2.471790e-07
 2.528154e-08
 2.616834e-07
 2.007247e-07
 1.022180e-07
 5.902053e-08
 -5.998033e-10
 1.744149e-05
 -2.714668e-08
 -4.372964e-09
 -2.315702e-08
 -2.900999e-08
 -3.175621e-08
 -3.360871e-08
 -3.521860e-08
 -3.681026e-08
 -3.845543e-08
 -4.016350e-08
 -4.192412e-08
 -4.372869e-08
 -4.556910e-08
 -4.740931e-08
 -4.913650e-08
 -5.051387e-08
 -5.116348e-08
 -5.059608e-08
 -4.828020e-08