<VTKFile type="UnstructuredGrid"  version="0.1"   >
<UnstructuredGrid>  
<Piece  NumberOfPoints="     2601"  NumberOfCells="     5000">  
<Points>  
<DataArray  type="Float64"  NumberOfComponents="3"  format="ascii">  
 0.000000 0.000000 0.000000 
 0.020000 0.000000 0.000000 
 0.040000 0.000000 0.000000 
 0.060000 0.000000 0.000000 
 0.080000 0.000000 0.000000 
 0.100000 0.000000 0.000000 
 0.120000 0.000000 0.000000 
 0.140000 0.000000 0.000000 
 0.160000 0.000000 0.000000 
 0.180000 0.000000 0.000000 
 0.200000 0.000000 0.000000 
 0.220000 0.000000 0.000000 
 0.240000 0.000000 0.000000 
 0.260000 0.000000 0.000000 
 0.280000 0.000000 0.000000 
 0.300000 0.000000 0.000000 
 0.320000 0.000000 0.000000 
 0.340000 0.000000 0.000000 
 0.360000 0.000000 0.000000 
 0.380000 0.000000 0.000000 
 0.400000 0.000000 0.000000 
 0.420000 0.000000 0.000000 
 0.440000 0.000000 0.000000 
 0.460000 0.000000 0.000000 
 0.480000 0.000000 0.000000 
 0.500000 0.000000 0.000000 
 0.520000 0.000000 0.000000 
 0.540000 0.000000 0.000000 
 0.560000 0.000000 0.000000 
 0.580000 0.000000 0.000000 
 0.600000 0.000000 0.000000 
 0.620000 0.000000 0.000000 
 0.640000 0.000000 0.000000 
 0.660000 0.000000 0.000000 
 0.680000 0.000000 0.000000 
 0.700000 0.000000 0.000000 
 0.720000 0.000000 0.000000 
 0.740000 0.000000 0.000000 
 0.760000 0.000000 0.000000 
 0.780000 0.000000 0.000000 
 0.800000 0.000000 0.000000 
 0.820000 0.000000 0.000000 
 0.840000 0.000000 0.000000 
 0.860000 0.000000 0.000000 
 0.880000 0.000000 0.000000 
 0.900000 0.000000 0.000000 
 0.920000 0.000000 0.000000 
 0.940000 0.000000 0.000000 
 0.960000 0.000000 0.000000 
 0.980000 0.000000 0.000000 
 1.000000 0.000000 0.000000 
 0.000000 0.020000 0.000000 
 0.020000 0.020000 0.000000 
 0.040000 0.020000 0.000000 
 0.060000 0.020000 0.000000 
 0.080000 0.020000 0.000000 
 0.100000 0.020000 0.000000 
 0.120000 0.020000 0.000000 
 0.140000 0.020000 0.000000 
 0.160000 0.020000 0.000000 
 0.180000 0.020000 0.000000 
 0.200000 0.020000 0.000000 
 0.220000 0.020000 0.000000 
 0.240000 0.020000 0.000000 
 0.260000 0.020000 0.000000 
 0.280000 0.020000 0.000000 
 0.300000 0.020000 0.000000 
 0.320000 0.020000 0.000000 
 0.340000 0.020000 0.000000 
 0.360000 0.020000 0.000000 
 0.380000 0.020000 0.000000 
 0.400000 0.020000 0.000000 
 0.420000 0.020000 0.000000 
 0.440000 0.020000 0.000000 
 0.460000 0.020000 0.000000 
 0.480000 0.020000 0.000000 
 0.500000 0.020000 0.000000 
 0.520000 0.020000 0.000000 
 0.540000 0.020000 0.000000 
 0.560000 0.020000 0.000000 
 0.580000 0.020000 0.000000 
 0.600000 0.020000 0.000000 
 0.620000 0.020000 0.000000 
 0.640000 0.020000 0.000000 
 0.660000 0.020000 0.000000 
 0.680000 0.020000 0.000000 
 0.700000 0.020000 0.000000 
 0.720000 0.020000 0.000000 
 0.740000 0.020000 0.000000 
 0.760000 0.020000 0.000000 
 0.780000 0.020000 0.000000 
 0.800000 0.020000 0.000000 
 0.820000 0.020000 0.000000 
 0.840000 0.020000 0.000000 
 0.860000 0.020000 0.000000 
 0.880000 0.020000 0.000000 
 0.900000 0.020000 0.000000 
 0.920000 0.020000 0.000000 
 0.940000 0.020000 0.000000 
 0.960000 0.020000 0.000000 
 0.980000 0.020000 0.000000 
 1.000000 0.020000 0.000000 
 0.000000 0.040000 0.000000 
 0.020000 0.040000 0.000000 
 0.040000 0.040000 0.000000 
 0.060000 0.040000 0.000000 
 0.080000 0.040000 0.000000 
 0.100000 0.040000 0.000000 
 0.120000 0.040000 0.000000 
 0.140000 0.040000 0.000000 
 0.160000 0.040000 0.000000 
 0.180000 0.040000 0.000000 
 0.200000 0.040000 0.000000 
 0.220000 0.040000 0.000000 
 0.240000 0.040000 0.000000 
 0.260000 0.040000 0.000000 
 0.280000 0.040000 0.000000 
 0.300000 0.040000 0.000000 
 0.320000 0.040000 0.000000 
 0.340000 0.040000 0.000000 
 0.360000 0.040000 0.000000 
 0.380000 0.040000 0.000000 
 0.400000 0.040000 0.000000 
 0.420000 0.040000 0.000000 
 0.440000 0.040000 0.000000 
 0.460000 0.040000 0.000000 
 0.480000 0.040000 0.000000 
 0.500000 0.040000 0.000000 
 0.520000 0.040000 0.000000 
 0.540000 0.040000 0.000000 
 0.560000 0.040000 0.000000 
 0.580000 0.040000 0.000000 
 0.600000 0.040000 0.000000 
 0.620000 0.040000 0.000000 
 0.640000 0.040000 0.000000 
 0.660000 0.040000 0.000000 
 0.680000 0.040000 0.000000 
 0.700000 0.040000 0.000000 
 0.720000 0.040000 0.000000 
 0.740000 0.040000 0.000000 
 0.760000 0.040000 0.000000 
 0.780000 0.040000 0.000000 
 0.800000 0.040000 0.000000 
 0.820000 0.040000 0.000000 
 0.840000 0.040000 0.000000 
 0.860000 0.040000 0.000000 
 0.880000 0.040000 0.000000 
 0.900000 0.040000 0.000000 
 0.920000 0.040000 0.000000 
 0.940000 0.040000 0.000000 
 0.960000 0.040000 0.000000 
 0.980000 0.040000 0.000000 
 1.000000 0.040000 0.000000 
 0.000000 0.060000 0.000000 
 0.020000 0.060000 0.000000 
 0.040000 0.060000 0.000000 
 0.060000 0.060000 0.000000 
 0.080000 0.060000 0.000000 
 0.100000 0.060000 0.000000 
 0.120000 0.060000 0.000000 
 0.140000 0.060000 0.000000 
 0.160000 0.060000 0.000000 
 0.180000 0.060000 0.000000 
 0.200000 0.060000 0.000000 
 0.220000 0.060000 0.000000 
 0.240000 0.060000 0.000000 
 0.260000 0.060000 0.000000 
 0.280000 0.060000 0.000000 
 0.300000 0.060000 0.000000 
 0.320000 0.060000 0.000000 
 0.340000 0.060000 0.000000 
 0.360000 0.060000 0.000000 
 0.380000 0.060000 0.000000 
 0.400000 0.060000 0.000000 
 0.420000 0.060000 0.000000 
 0.440000 0.060000 0.000000 
 0.460000 0.060000 0.000000 
 0.480000 0.060000 0.000000 
 0.500000 0.060000 0.000000 
 0.520000 0.060000 0.000000 
 0.540000 0.060000 0.000000 
 0.560000 0.060000 0.000000 
 0.580000 0.060000 0.000000 
 0.600000 0.060000 0.000000 
 0.620000 0.060000 0.000000 
 0.640000 0.060000 0.000000 
 0.660000 0.060000 0.000000 
 0.680000 0.060000 0.000000 
 0.700000 0.060000 0.000000 
 0.720000 0.060000 0.000000 
 0.740000 0.060000 0.000000 
 0.760000 0.060000 0.000000 
 0.780000 0.060000 0.000000 
 0.800000 0.060000 0.000000 
 0.820000 0.060000 0.000000 
 0.840000 0.060000 0.000000 
 0.860000 0.060000 0.000000 
 0.880000 0.060000 0.000000 
 0.900000 0.060000 0.000000 
 0.920000 0.060000 0.000000 
 0.940000 0.060000 0.000000 
 0.960000 0.060000 0.000000 
 0.980000 0.060000 0.000000 
 1.000000 0.060000 0.000000 
 0.000000 0.080000 0.000000 
 0.020000 0.080000 0.000000 
 0.040000 0.080000 0.000000 
 0.060000 0.080000 0.000000 
 0.080000 0.080000 0.000000 
 0.100000 0.080000 0.000000 
 0.120000 0.080000 0.000000 
 0.140000 0.080000 0.000000 
 0.160000 0.080000 0.000000 
 0.180000 0.080000 0.000000 
 0.200000 0.080000 0.000000 
 0.220000 0.080000 0.000000 
 0.240000 0.080000 0.000000 
 0.260000 0.080000 0.000000 
 0.280000 0.080000 0.000000 
 0.300000 0.080000 0.000000 
 0.320000 0.080000 0.000000 
 0.340000 0.080000 0.000000 
 0.360000 0.080000 0.000000 
 0.380000 0.080000 0.000000 
 0.400000 0.080000 0.000000 
 0.420000 0.080000 0.000000 
 0.440000 0.080000 0.000000 
 0.460000 0.080000 0.000000 
 0.480000 0.080000 0.000000 
 0.500000 0.080000 0.000000 
 0.520000 0.080000 0.000000 
 0.540000 0.080000 0.000000 
 0.560000 0.080000 0.000000 
 0.580000 0.080000 0.000000 
 0.600000 0.080000 0.000000 
 0.620000 0.080000 0.000000 
 0.640000 0.080000 0.000000 
 0.660000 0.080000 0.000000 
 0.680000 0.080000 0.000000 
 0.700000 0.080000 0.000000 
 0.720000 0.080000 0.000000 
 0.740000 0.080000 0.000000 
 0.760000 0.080000 0.000000 
 0.780000 0.080000 0.000000 
 0.800000 0.080000 0.000000 
 0.820000 0.080000 0.000000 
 0.840000 0.080000 0.000000 
 0.860000 0.080000 0.000000 
 0.880000 0.080000 0.000000 
 0.900000 0.080000 0.000000 
 0.920000 0.080000 0.000000 
 0.940000 0.080000 0.000000 
 0.960000 0.080000 0.000000 
 0.980000 0.080000 0.000000 
 1.000000 0.080000 0.000000 
 0.000000 0.100000 0.000000 
 0.020000 0.100000 0.000000 
 0.040000 0.100000 0.000000 
 0.060000 0.100000 0.000000 
 0.080000 0.100000 0.000000 
 0.100000 0.100000 0.000000 
 0.120000 0.100000 0.000000 
 0.140000 0.100000 0.000000 
 0.160000 0.100000 0.000000 
 0.180000 0.100000 0.000000 
 0.200000 0.100000 0.000000 
 0.220000 0.100000 0.000000 
 0.240000 0.100000 0.000000 
 0.260000 0.100000 0.000000 
 0.280000 0.100000 0.000000 
 0.300000 0.100000 0.000000 
 0.320000 0.100000 0.000000 
 0.340000 0.100000 0.000000 
 0.360000 0.100000 0.000000 
 0.380000 0.100000 0.000000 
 0.400000 0.100000 0.000000 
 0.420000 0.100000 0.000000 
 0.440000 0.100000 0.000000 
 0.460000 0.100000 0.000000 
 0.480000 0.100000 0.000000 
 0.500000 0.100000 0.000000 
 0.520000 0.100000 0.000000 
 0.540000 0.100000 0.000000 
 0.560000 0.100000 0.000000 
 0.580000 0.100000 0.000000 
 0.600000 0.100000 0.000000 
 0.620000 0.100000 0.000000 
 0.640000 0.100000 0.000000 
 0.660000 0.100000 0.000000 
 0.680000 0.100000 0.000000 
 0.700000 0.100000 0.000000 
 0.720000 0.100000 0.000000 
 0.740000 0.100000 0.000000 
 0.760000 0.100000 0.000000 
 0.780000 0.100000 0.000000 
 0.800000 0.100000 0.000000 
 0.820000 0.100000 0.000000 
 0.840000 0.100000 0.000000 
 0.860000 0.100000 0.000000 
 0.880000 0.100000 0.000000 
 0.900000 0.100000 0.000000 
 0.920000 0.100000 0.000000 
 0.940000 0.100000 0.000000 
 0.960000 0.100000 0.000000 
 0.980000 0.100000 0.000000 
 1.000000 0.100000 0.000000 
 0.000000 0.120000 0.000000 
 0.020000 0.120000 0.000000 
 0.040000 0.120000 0.000000 
 0.060000 0.120000 0.000000 
 0.080000 0.120000 0.000000 
 0.100000 0.120000 0.000000 
 0.120000 0.120000 0.000000 
 0.140000 0.120000 0.000000 
 0.160000 0.120000 0.000000 
 0.180000 0.120000 0.000000 
 0.200000 0.120000 0.000000 
 0.220000 0.120000 0.000000 
 0.240000 0.120000 0.000000 
 0.260000 0.120000 0.000000 
 0.280000 0.120000 0.000000 
 0.300000 0.120000 0.000000 
 0.320000 0.120000 0.000000 
 0.340000 0.120000 0.000000 
 0.360000 0.120000 0.000000 
 0.380000 0.120000 0.000000 
 0.400000 0.120000 0.000000 
 0.420000 0.120000 0.000000 
 0.440000 0.120000 0.000000 
 0.460000 0.120000 0.000000 
 0.480000 0.120000 0.000000 
 0.500000 0.120000 0.000000 
 0.520000 0.120000 0.000000 
 0.540000 0.120000 0.000000 
 0.560000 0.120000 0.000000 
 0.580000 0.120000 0.000000 
 0.600000 0.120000 0.000000 
[...]
<PointData  Scalars="U"> 
<DataArray  type="Float64"  Name="U"  format="ascii"> 
 0.000000e+00
 0.000000e+00
 0.000000e+00
 0.000000e+00
 0.000000e+00
 0.000000e+00
 0.000000e+00
 0.000000e+00
 0.000000e+00
 0.000000e+00
 0.000000e+00
 0.000000e+00
 0.000000e+00
 0.000000e+00
 0.000000e+00
 0.000000e+00
 0.000000e+00
 0.000000e+00
 0.000000e+00
 0.000000e+00
 0.000000e+00
 0.000000e+00
 0.000000e+00
 0.000000e+00
 0.000000e+00
 0.000000e+00
 0.000000e+00
 0.000000e+00
 0.000000e+00
 0.000000e+00
 0.000000e+00
 0.000000e+00
 0.000000e+00
 0.000000e+00
 0.000000e+00
 0.000000e+00
 0.000000e+00
 0.000000e+00
 0.000000e+00
 0.000000e+00
 0.000000e+00
 0.000000e+00
 0.000000e+00
 0.000000e+00
 0.000000e+00
 0.000000e+00
 0.000000e+00
 0.000000e+00
 0.000000e+00
 0.000000e+00
 0.000000e+00
 0.000000e+00
 -1.213014e-08
 -2.484738e-08
 -3.847596e-08
 -5.295815e-08
 -6.836303e-08
 -8.674719e-08
 -1.154365e-07
 -1.714610e-07
 -2.926702e-07
 -5.847861e-07
 -1.440865e-06
 -3.633148e-06
 -4.909370e-06
 -1.161559e-06
 2.721863e-07
 -1.707023e-07
 -3.391289e-07
 -1.401186e-06
 -1.589019e-07
 6.715097e-07
 1.942680e-08
 -1.279246e-07
 -1.808518e-07
 -2.388073e-07
 -3.552278e-07
 -6.354119e-07
 -1.456422e-06
 -3.505986e-06
 -3.711695e-06
 -1.259832e-06
 -6.641589e-07
 -2.374996e-07
 -1.100432e-06
 1.709985e-05
 -8.939480e-07
 -2.287192e-07
 5.522336e-07
 1.383514e-07
 1.843428e-07
 8.068211e-08
 -3.102342e-09
 -2.680536e-08
 -2.678893e-08
 -2.107631e-08
 -1.475608e-08
 -8.749895e-09
 -3.772075e-09
 -6.805907e-10
 3.041324e-10
 0.000000e+00
 0.000000e+00
 -2.362721e-08
 -4.870439e-08
 -7.607847e-08
 -1.052787e-07
 -1.346135e-07
 -1.647065e-07
 -2.063062e-07
 -2.859658e-07
 -4.466234e-07
 -7.559563e-07
 -1.291132e-06
 -1.858422e-06
 -1.870535e-06
 1.616533e-05
 -8.065449e-07
 -4.997105e-07
 -3.408899e-07
 -2.984191e-07
 1.716963e-05
 -3.060870e-07
 -2.905176e-07
 -3.176471e-07
 -3.516863e-07
 -4.257169e-07
 -5.772733e-07
 -8.728696e-07
 -1.392886e-06
 -1.951777e-06
 -1.913927e-06
 -1.396478e-06
 -1.860047e-06
 -1.238562e-07
 1.330512e-06
 1.701044e-05
 -1.897820e-06
 1.688404e-05
 -1.345862e-06
 -9.444864e-08
 7.110456e-07
 6.098905e-08
 -6.632153e-08
 -7.325677e-08
 -5.719352e-08
 -4.222104e-08
 -2.926846e-08
 -1.652191e-08
 -5.529201e-09
 9.191462e-10
 2.112574e-09
 0.000000e+00
 0.000000e+00
 -3.358124e-08
 -7.003378e-08
 -1.115531e-07
 -1.576814e-07
 -2.018568e-07
 -2.340633e-07
 -2.615529e-07
 -3.232057e-07
 -4.592707e-07
 -6.775634e-07
 -9.259021e-07
 -1.002551e-06
 -3.695006e-07
 -1.058923e-06
 -2.096527e-06
 -7.714840e-07
 -3.055890e-07
 4.636316e-07
 -3.961584e-07
 -1.703145e-06
 -6.426694e-07
 -4.962185e-07
 -4.834595e-07
 -5.400739e-07
 -6.634365e-07
 -8.621684e-07
 -1.111347e-06
 -1.284487e-06
 -1.200256e-06
 -8.540801e-07
 -4.685719e-07
 1.742941e-05
 6.065518e-07
 -1.585661e-06
 -2.357546e-06
 1.952392e-08
 -8.084559e-07
 1.702014e-05
 -4.117966e-07
 -3.079422e-07
 -2.195189e-07
 -1.328092e-07
 -8.320679e-08
 -6.128534e-08
 -4.437446e-08
 -2.276366e-08
 -2.290676e-09
 8.272179e-09
 7.441695e-09
 0.000000e+00
 0.000000e+00
 -4.058662e-08
 -8.592988e-08
 -1.413090e-07
 -2.107380e-07
 -2.839201e-07
 -3.152996e-07
 -2.827631e-07
 -2.797337e-07
 -3.823285e-07
 -5.448744e-07
 -6.871698e-07
 -7.251260e-07
 -6.863833e-07
 -8.315507e-07
 -9.526667e-07
 -7.394609e-07
 -4.310957e-07
 -2.548372e-07
 -4.383292e-07
 -6.976280e-07
 -6.668482e-07
 -5.717742e-07
 -5.531164e-07
 -5.896720e-07
 -6.702614e-07
 -7.813639e-07
 -8.868783e-07
 -9.152589e-07
 -7.814947e-07
 -4.056539e-07
 5.243724e-07
 -7.072381e-08
 -1.180313e-06
 -3.272654e-07
 1.697235e-05
 1.691497e-05
 -3.687692e-08
 -8.347149e-07
 -1.994501e-06
 -7.493958e-07
 -3.635112e-07
 -1.463785e-07
 -7.971423e-08
 -7.827038e-08
 -6.724001e-08
 -2.824606e-08
 1.249693e-08
 2.813032e-08
 1.956136e-08
 0.000000e+00
 0.000000e+00
 -4.296354e-08
 -9.179997e-08
 -1.555824e-07
 -2.514506e-07
 -4.083240e-07
 -4.903327e-07
 -2.699407e-07
 -1.015533e-07
 -2.445074e-07
 -4.307029e-07
 -5.567499e-07
 -6.219696e-07
 -6.580722e-07
 -7.072235e-07
 -7.194603e-07
 -6.343739e-07
 -5.091602e-07
 -4.434994e-07
 -4.886644e-07
 -5.677525e-07
 -5.874344e-07
 -5.718240e-07
 -5.698924e-07
 -5.950197e-07
 -6.427664e-07
 -6.990105e-07
 -7.364539e-07
 -7.142042e-07
 -5.888622e-07
 -3.369974e-07
 -6.258937e-08
 -5.405896e-08
 -3.415804e-08
 7.397604e-07
 4.553143e-07
 -1.801912e-06
 -2.102248e-06
 -1.153495e-06
 -1.212867e-06
 -9.469550e-07
 -3.587635e-07
 1.371014e-08
 -1.678202e-08
 -1.153496e-07
 -1.266876e-07
 -3.508754e-08
 5.880860e-08
 7.390883e-08
 4.168953e-08
 0.000000e+00
 0.000000e+00
 -3.995141e-08
 -8.398900e-08
 -1.402931e-07
 -2.315812e-07
 -4.385880e-07
 -1.551696e-06
 -2.870080e-07
 5.612103e-07
 -1.470805e-07
 -3.800884e-07
 -4.925984e-07
 -5.551463e-07
 -5.928629e-07
 -6.158651e-07
 -6.127630e-07
 -5.742217e-07
 -5.217403e-07
 -4.918477e-07
 -5.007843e-07
 -5.275146e-07
 -5.441219e-07
 -5.495854e-07
 -5.576466e-07
 -5.763906e-07
 -6.044836e-07
 -6.328005e-07
 -6.450475e-07
 -6.190924e-07
 -5.319946e-07
 -3.784760e-07
 -2.085046e-07
 -9.617934e-08
 4.535355e-09
 1.046478e-07
 -1.288493e-07
 -7.114483e-07
 -1.071212e-06
 -1.159772e-06
 -1.228911e-06
 -1.884681e-06
 -1.960139e-07
 7.429306e-07
 2.941567e-08
 -2.461702e-07
 -3.178122e-07
 -3.910778e-08
 2.117358e-07
 1.631797e-07
 6.714994e-08
 0.000000e+00
 0.000000e+00
 -3.341576e-08
 -6.575494e-08
 -9.662068e-08
 -1.257622e-07
 -1.467217e-07
 -2.175889e-07
 1.719180e-05
 -3.228634e-07
 -3.524632e-07
 -4.230964e-07
 -4.741338e-07
 -5.117264e-07
 -5.373402e-07
 -5.506422e-07
 -5.484629e-07
 -5.309791e-07
 -5.079263e-07
 -4.933289e-07
 -4.937917e-07
 -5.038311e-07
 -5.144425e-07
 -5.231226e-07
 -5.330781e-07
 -5.471796e-07
 -5.647567e-07
 -5.816063e-07
 -5.914404e-07
 -5.869813e-07
 -5.521809e-07
 -4.472628e-07
 -2.668508e-07
 -1.153902e-07
 -6.631500e-08
 -1.115859e-07
 -2.773267e-07
 -5.213305e-07
 -7.114911e-07
 -8.743348e-07
 -1.857018e-06
 -4.794227e-07
 1.797358e-05
 -6.655031e-08
 -1.950034e-07
 -3.833968e-07
 -1.436360e-06
 -9.577405e-08
 8.365024e-07
 2.141366e-07
 5.886915e-08
 0.000000e+00
 0.000000e+00
 -2.809386e-08
 -4.912540e-08
 -5.415709e-08
 -2.384889e-08
 1.128842e-07
 7.155774e-07
 -2.415892e-07
 -1.612808e-06
 -5.992304e-07
 -4.818280e-07
 -4.689649e-07
 -4.800696e-07
 -4.933424e-07
 -5.014278e-07
 -5.014924e-07
 -4.942373e-07
 -4.841937e-07
 -4.772518e-07
 -4.765895e-07
 -4.810846e-07
 -4.877918e-07
 -4.951967e-07
 -5.036809e-07
 -5.138708e-07
 -5.253964e-07
 -5.374087e-07
 -5.515726e-07
 -5.786758e-07
 -6.454531e-07
 -6.206063e-07
 -2.868480e-07
 -9.731066e-09
 -6.068257e-08
 -1.925441e-07
 -3.205698e-07
 -4.178467e-07
 -4.335285e-07
 -3.391307e-07
 -1.500660e-07
 1.800750e-05
 -3.043291e-07
 -1.542186e-06
 -4.440371e-07
 -2.297013e-07
 -1.732278e-07
 1.733529e-05
 -8.812620e-08
 -3.053269e-08
 -2.010251e-08
 0.000000e+00
 0.000000e+00
 -2.964223e-08
 -4.738865e-08
 -4.125128e-08
 -8.509610e-10
 7.915983e-08
 1.052206e-07
 -1.817348e-07
 -5.145731e-07
 -5.340768e-07
 -4.660375e-07
 -4.465693e-07
 -4.480349e-07
 -4.550746e-07
 -4.607958e-07
 -4.625868e-07
 -4.605712e-07
 -4.568245e-07
 -4.540355e-07
 -4.539031e-07
 -4.564699e-07
 -4.608264e-07
 -4.662112e-07
 -4.723603e-07
 -4.790818e-07
 -4.858652e-07
 -4.924556e-07
 -5.019878e-07
 -5.323574e-07
 -6.624498e-07
 -1.686808e-06
 -3.318230e-07
 5.952127e-07
 -5.880038e-08
 -2.723258e-07
 -3.877835e-07
 -4.041507e-07
 -2.620144e-07
 5.117795e-08
 8.415812e-07
 2.286240e-08
 -1.497657e-06
 -6.617613e-07
 -3.845969e-07
 -2.974946e-08
 7.102451e-07
 -1.401825e-07
 -1.415419e-06
 -3.107166e-07
 -1.047040e-07
 0.000000e+00
 0.000000e+00
 -4.296986e-08
 -6.990974e-08
 -6.283757e-08
 -2.120444e-08
 1.567031e-08
 -1.902431e-08
 -1.584657e-07
 -3.141459e-07
 -3.877821e-07
 -4.022604e-07
 -4.058356e-07
 -4.117357e-07
 -4.187583e-07
 -4.245322e-07
 -4.278378e-07
 -4.287507e-07
 -4.283020e-07
 -4.278401e-07
 -4.283471e-07
 -4.301180e-07
 -4.329413e-07
 -4.364719e-07
 -4.403888e-07
 -4.442154e-07
 -4.469227e-07
 -4.463829e-07
 -4.386416e-07
 -4.171805e-07
 -3.703050e-07
 -3.595049e-07
 1.713064e-05
 -3.220754e-07
 -3.224701e-07
 -4.105943e-07
 -5.439039e-07
 -5.708839e-07
 -2.308985e-07
 1.571726e-07
 2.476173e-07
 -1.361772e-08
 -3.538681e-07
 -3.831115e-07
 -2.361216e-07
 -5.026055e-08
 7.565180e-08
 -1.137236e-07
 -3.501686e-07
 -2.759761e-07
 -1.160736e-07
 0.000000e+00
 0.000000e+00
 -7.117265e-08
 -1.291100e-07
 -1.269042e-07
 -4.232296e-08
 2.627168e-08
 -9.451543e-09
 -1.160776e-07
 -2.265784e-07
 -3.014306e-07
 -3.407994e-07
 -3.613121e-07
 -3.743310e-07
 -3.839183e-07
 -3.909614e-07
 -3.956503e-07
 -3.983474e-07
 -3.997199e-07
 -4.005448e-07
 -4.014369e-07
 -4.026991e-07
 -4.043635e-07
 -4.063262e-07
 -4.084186e-07
 -4.102915e-07
 -4.109243e-07
 -4.070742e-07
 -3.885052e-07
 -3.247188e-07
 -1.265759e-07
 5.672961e-07
 -2.992129e-07
 -1.612407e-06
 -5.822442e-07
 -4.983588e-07
 -6.348227e-07
 -1.686904e-06
 -3.362942e-07
 6.366539e-07
 8.197588e-08
 -2.679590e-08
 -9.085083e-08
 -1.373878e-07
 -1.325700e-07
 -9.137770e-08
 -7.190131e-08
 -1.230930e-07
 -1.795595e-07
 -1.573320e-07
 -8.267552e-08
 0.000000e+00
 0.000000e+00
 -1.040343e-07
 -2.490866e-07
 -3.040662e-07
 -4.453667e-08
 1.702689e-07
 7.354027e-08
 -7.534446e-08
 -1.825627e-07
 -2.531086e-07
 -2.965684e-07
 -3.229761e-07
 -3.399094e-07
 -3.515487e-07
 -3.597917e-07
 -3.655140e-07
 -3.692889e-07
 -3.716544e-07
 -3.731242e-07
 -3.741084e-07
 -3.748574e-07
 -3.754817e-07
 -3.760294e-07
 -3.765794e-07
 -3.773121e-07
 -3.784576e-07
 -3.795908e-07
 -3.758498e-07
 -3.418117e-07
 -2.132862e-07
 -4.896564e-08
 -1.974247e-07
 -4.728001e-07
 -4.868969e-07
 -4.255473e-07
 -4.010717e-07
 -4.351406e-07
 1.701302e-05
 -4.711746e-07
 -3.567103e-07
 -3.592278e-08
 1.607049e-07
 4.502321e-08
 -7.243458e-08
 -1.137652e-07
 -1.206612e-07
 -1.223563e-07
 -1.165197e-07
 -9.068152e-08
 -4.830765e-08
 0.000000e+00
 0.000000e+00
 -9.515741e-08
 -2.899086e-07
 -1.380021e-06
 -8.445450e-08
 7.988863e-07
 1.249606e-07
 -8.000863e-08
 -1.753852e-07
 -2.320698e-07
 -2.688833e-07
 -2.934855e-07
 -3.104063e-07
 -3.224230e-07
 -3.311050e-07
 -3.373259e-07
 -3.416383e-07
 -3.444661e-07
 -3.461604e-07
 -3.469900e-07
 -3.471297e-07
 -3.466822e-07
 -3.457491e-07
 -3.445777e-07
 -3.438706e-07
 -3.455254e-07
 -3.545050e-07
 -3.833158e-07
 -4.578028e-07
 -4.512074e-07
 -1.762561e-07
 -2.363253e-08
 -1.820158e-07
 -3.026002e-07
 -3.123897e-07
 -1.964094e-07
 4.105645e-07
 -5.443759e-07
 -1.952017e-06
 -1.655243e-06
 2.941270e-08
 8.858836e-07
 1.323361e-07
 -9.487301e-08
 -1.675220e-07
 -1.679777e-07
 -1.272300e-07
 -7.767152e-08
 -4.166351e-08
 -1.843233e-08
 0.000000e+00
 0.000000e+00
 -1.480476e-08
 -1.907119e-08
 -6.858659e-08
 1.736700e-05
 -1.186808e-07
 -1.199871e-07
 -1.667556e-07
 -2.010647e-07
 -2.296716e-07
 -2.530063e-07
 -2.713897e-07
 -2.856049e-07
 -2.965204e-07
 -3.048316e-07
 -3.110288e-07
 -3.154617e-07
 -3.183977e-07
 -3.200445e-07
 -3.205480e-07
 -3.199874e-07
 -3.183885e-07
 -3.157729e-07
 -3.122837e-07
 -3.085084e-07
 -3.063965e-07
 -3.121771e-07
 -3.469600e-07
 -4.922662e-07
 -1.545555e-06
 -2.361734e-07
 6.377261e-07
 -4.282933e-08
 -2.262722e-07
 -2.805293e-07
 -3.132086e-07
 -3.225486e-07
 -4.268833e-07
 -1.504049e-06
 -2.370542e-07
 1.813842e-05
 2.208837e-08
 -1.413519e-07
 -2.423645e-07
 -2.874266e-07
 -2.588094e-07
 -1.391145e-07
 -2.012949e-08
 2.089285e-08
 1.525666e-08
 0.000000e+00
 0.000000e+00
 5.906377e-08
 2.144726e-07
 8.366671e-07
 -9.680138e-08
 -1.441465e-06
 -4.017201e-07
 -2.617041e-07
 -2.319083e-07
 -2.326295e-07
 -2.421735e-07
 -2.534691e-07
 -2.640672e-07
 -2.731859e-07
 -2.806491e-07
 -2.864834e-07
 -2.907730e-07
 -2.936083e-07
 -2.950603e-07
 -2.951601e-07
 -2.938810e-07
 -2.911273e-07
 -2.867312e-07
 -2.804606e-07
 -2.720446e-07
 -2.612234e-07
 -2.477716e-07
 -2.309457e-07
 -2.043015e-07
 -2.280474e-07
 1.722471e-05
 -2.497638e-07
 -2.356563e-07
 -2.557172e-07
 -2.686777e-07
 -3.736662e-07
 -1.401055e-06
 -8.085803e-08
 8.788359e-07
 1.831463e-05
 -2.056835e-07
 -1.545216e-06
 -5.319173e-07
 -4.267371e-07
 -4.786319e-07
 -4.696330e-07
 -1.461977e-07
 1.424579e-07
 1.262426e-07
 5.267802e-08
 0.000000e+00
 0.000000e+00
 6.225993e-08
 1.526356e-07
 1.934017e-07
 -7.049946e-08
 -3.756352e-07
 -3.677888e-07
 -2.762193e-07
 -2.388279e-07
 -2.286138e-07
 -2.302230e-07
 -2.364830e-07
 -2.440943e-07
 -2.515343e-07
 -2.581029e-07
 -2.634831e-07
 -2.675352e-07
 -2.701954e-07
 -2.714186e-07
 -2.711394e-07
 -2.692369e-07
 -2.654973e-07
 -2.595566e-07
 -2.507843e-07
 -2.379991e-07
 -2.186621e-07
 -1.862833e-07
 -1.208962e-07
 5.153095e-08
 6.929614e-07
 -2.219829e-07
 -1.546987e-06
 -4.801454e-07
 -2.971043e-07
 -1.999965e-07
 -9.733313e-08
 -1.581884e-08
 1.765456e-05
 9.034144e-07
 5.354812e-08
 -1.537119e-06
 -7.684555e-07
 -5.950575e-07
 -4.828328e-07
 -5.679200e-07
 -1.581764e-06
 -2.032526e-07
 7.815855e-07
 2.046284e-07
 6.551055e-08
 0.000000e+00
 0.000000e+00
 3.238933e-08
 5.437116e-08
 2.657109e-08
 -8.550630e-08
 -2.069312e-07
 -2.486069e-07
 -2.369505e-07
 -2.210645e-07
 -2.140511e-07
 -2.142040e-07
 -2.184130e-07
 -2.244171e-07
 -2.308120e-07
 -2.367719e-07
 -2.418226e-07
 -2.456922e-07
 -2.482158e-07
 -2.492704e-07
 -2.487268e-07
 -2.464061e-07
 -2.420281e-07
 -2.351332e-07
 -2.249320e-07
 -2.099838e-07
 -1.874672e-07
 -1.515504e-07
 -9.050864e-08
 1.052606e-08
 6.696153e-08
 -1.788917e-07
 -4.626631e-07
 -4.250118e-07
 -2.823949e-07
 -1.397248e-07
 1.232074e-07
 8.945579e-07
 1.453430e-07
 -1.089410e-06
 -3.009734e-07
 -5.325874e-07
 -5.647642e-07
 -4.636321e-07
 -3.770828e-07
 -3.152849e-07
 -3.175577e-07
 1.720495e-05
 -1.212642e-07
 2.310804e-08
 3.290872e-08
 0.000000e+00
 0.000000e+00
 6.698407e-09
 1.833007e-09
 -2.865314e-08
 -8.700090e-08
 -1.477972e-07
 -1.831528e-07
 -1.931922e-07
 -1.929099e-07
 -1.923059e-07
 -1.943089e-07
 -1.986939e-07
 -2.044428e-07
 -2.105812e-07
 -2.163825e-07
 -2.213600e-07
 -2.252020e-07
 -2.277040e-07
 -2.287120e-07
 -2.280753e-07
 -2.256043e-07
 -2.210251e-07
 -2.139176e-07
 -2.036199e-07
 -1.890811e-07
 -1.686921e-07
 -1.404273e-07
 -1.040118e-07
 -7.126370e-08
 -8.441284e-08
 -1.797854e-07
 -2.828501e-07
 -3.030532e-07
 -2.602676e-07
 -1.762691e-07
 2.021762e-09
 2.181458e-07
 1.150640e-07
 -1.646457e-07
 -2.772615e-07
 -3.382744e-07
 -3.617234e-07
 -3.192400e-07
 -2.350527e-07
 -7.222838e-08
 4.997745e-07
 -4.051057e-07
 -1.411950e-06
 -7.898081e-08
 4.451312e-08
 0.000000e+00
 0.000000e+00
 -8.458723e-09
 -2.345748e-08
 -4.967736e-08
 -8.537356e-08
 -1.206595e-07
 -1.454805e-07
 -1.582075e-07
 -1.638086e-07
 -1.675052e-07
 -1.719400e-07
 -1.776331e-07
 -1.841253e-07
 -1.907284e-07
 -1.968460e-07
 -2.020505e-07
 -2.060596e-07
 -2.086866e-07
 -2.097921e-07
 -2.092443e-07
 -2.068873e-07
 -2.025118e-07
 -1.958288e-07
 -1.864518e-07
 -1.739219e-07
 -1.579008e-07
 -1.388801e-07
 -1.201326e-07
 -1.110016e-07
 -1.259936e-07
 -1.685646e-07
 -2.151366e-07
 -2.419802e-07
 -2.604307e-07
 -3.100437e-07
 -2.737061e-07
 3.013360e-08
 2.009633e-07
 3.343992e-08
 -1.322433e-07
 -2.121255e-07
 -2.327161e-07
 -2.061443e-07
 -1.440260e-07
 -6.568465e-08
 -1.409101e-07
 -1.418612e-06
 -3.523513e-07
 6.157008e-07
 1.089355e-07
 0.000000e+00
 0.000000e+00
 -1.689259e-08
 -3.640082e-08
 -5.948664e-08
 -8.409516e-08
 -1.058026e-07
 -1.211251e-07
 -1.302380e-07
 -1.360854e-07
 -1.416041e-07
 -1.481648e-07
 -1.557477e-07
 -1.637187e-07
 -1.713917e-07
 -1.782475e-07
 -1.839521e-07
 -1.883070e-07
 -1.911919e-07
 -1.925212e-07
 -1.922138e-07
 -1.901753e-07
 -1.862886e-07
 -1.804185e-07
 -1.724444e-07
 -1.623587e-07
 -1.505122e-07
 -1.381235e-07
 -1.280483e-07
 -1.250713e-07
 -1.337148e-07
 -1.529762e-07
 -1.747470e-07
 -1.943493e-07
 -2.298600e-07
 -3.663368e-07
 -1.405797e-06
 -8.158719e-08
 8.027868e-07
 1.216553e-07
 -7.470904e-08
 -1.409769e-07
 -1.519740e-07
 -1.279612e-07
 -7.836275e-08
 -2.011299e-08
 9.057990e-09
 -8.556632e-08
 1.729995e-05
 -1.510534e-07
 -5.802796e-08
 0.000000e+00
 0.000000e+00
 -2.243797e-08
 -4.520432e-08
 -6.727828e-08
 -8.589100e-08
 -9.807261e-08
 -1.034987e-07
 -1.054819e-07
 -1.083737e-07
 -1.144157e-07
 -1.232748e-07
 -1.334759e-07
 -1.436431e-07
 -1.529048e-07
 -1.608225e-07
 -1.672162e-07
 -1.720298e-07
 -1.752534e-07
 -1.768843e-07
 -1.769103e-07
 -1.753079e-07
 -1.720496e-07
 -1.671273e-07
 -1.606005e-07
 -1.526909e-07
 -1.439434e-07
 -1.354448e-07
 -1.289518e-07
 -1.265225e-07
 -1.291983e-07
 -1.352506e-07
 -1.400870e-07
 -1.389478e-07
 -1.291928e-07
 -1.049895e-07
 -1.273112e-07
 1.733139e-05
 -1.324001e-07
 -1.070836e-07
 -1.209506e-07
 -1.183494e-07
 -1.049950e-07
 -7.626486e-08
 -2.650380e-08
 5.525503e-08
 2.281176e-07
 8.507553e-07
 -7.744629e-08
 -1.383220e-06
 -2.644755e-07
 0.000000e+00
 0.000000e+00
 -2.740594e-08
 -5.434712e-08
 -7.844449e-08
 -9.461666e-08
 -9.783542e-08
 -8.950410e-08
 -7.936404e-08
 -7.702509e-08
 -8.423530e-08
 -9.708727e-08
 -1.113347e-07
 -1.245468e-07
 -1.358034e-07
 -1.449406e-07
 -1.520669e-07
 -1.573431e-07
 -1.609059e-07
 -1.628498e-07
 -1.632344e-07
 -1.620990e-07
 -1.594848e-07
 -1.554654e-07
 -1.501914e-07
 -1.439524e-07
 -1.372503e-07
 -1.308414e-07
 -1.256447e-07
 -1.223579e-07
 -1.207244e-07
 -1.187123e-07
 -1.119315e-07
 -9.219441e-08
 -3.912236e-08
 1.207023e-07
 7.502101e-07
 -1.689130e-07
 -1.478600e-06
 -3.797878e-07
 -1.785492e-07
 -1.051388e-07
 -7.351151e-08
 -4.542330e-08
 -1.915673e-09
 6.857455e-08
 1.760195e-07
 2.351056e-07
 -4.094949e-09
 -2.676318e-07
 -1.931252e-07
 0.000000e+00
 0.000000e+00
 -3.249854e-08
 -6.577989e-08
 -9.738906e-08
 -1.174902e-07
 -1.109488e-07
 -7.725995e-08
 -4.374613e-08
 -3.511963e-08
 -4.848747e-08
 -6.987563e-08
 -9.048458e-08
 -1.075215e-07
 -1.208590e-07
 -1.310750e-07
 -1.387619e-07
 -1.443625e-07
 -1.481709e-07
 -1.503713e-07
 -1.510785e-07
 -1.503738e-07
 -1.483374e-07
 -1.450810e-07
 -1.407831e-07
 -1.357230e-07
 -1.302993e-07
 -1.250006e-07
 -1.202726e-07
 -1.162320e-07
 -1.122408e-07
 -1.064452e-07
 -9.531270e-08
 -7.276037e-08
 -2.824797e-08
 4.998218e-08
 7.447611e-08
 -2.013279e-07
 -4.663703e-07
 -3.384263e-07
 -1.320650e-07
 -5.535512e-08
 -4.170396e-08
 -3.121673e-08
 -3.628133e-09
 4.183581e-08
 8.872674e-08
 9.044591e-08
 1.021033e-08
 -7.416489e-08
 -6.917255e-08
 0.000000e+00
 0.000000e+00
 -3.633032e-08
 -7.755908e-08
 -1.262419e-07
 -1.694325e-07
 -1.577343e-07
 -6.414264e-08
 2.310127e-08
 3.031865e-08
 -6.134468e-09
 -4.449552e-08
 -7.358891e-08
 -9.427904e-08
 -1.090262e-07
 -1.197099e-07
 -1.275176e-07
 -1.331558e-07
 -1.370327e-07
 -1.393805e-07
 -1.403344e-07
 -1.399857e-07
 -1.384209e-07
 -1.357550e-07
 -1.321583e-07
 -1.278749e-07
 -1.232206e-07
 -1.185387e-07
 -1.140882e-07
 -1.098520e-07
 -1.052897e-07
 -9.912840e-08
 -8.938187e-08
 -7.414326e-08
 -5.517835e-08
 -5.100853e-08
 -1.199536e-07
 -3.269019e-07
 -4.607122e-07
 -2.022033e-07
 7.104071e-08
 5.098987e-08
 -1.441113e-08
 -3.652910e-08
 -2.535826e-08
 7.434596e-09
 4.353955e-08
 5.605698e-08
 3.305572e-08
 -2.913435e-10
 -1.159185e-08
 0.000000e+00
 0.000000e+00
 -3.508622e-08
 -8.025114e-08
 -1.517948e-07
 -2.766145e-07
 -3.161936e-07
 -4.045049e-08
 1.974094e-07
 1.354983e-07
 3.181505e-08
 -2.979527e-08
 -6.517626e-08
 -8.684415e-08
 -1.011376e-07
 -1.111421e-07
 -1.183951e-07
 -1.236824e-07
 -1.274079e-07
 -1.297765e-07
 -1.308924e-07
 -1.308183e-07
 -1.296151e-07
 -1.273728e-07
 -1.242332e-07
 -1.204042e-07
 -1.161580e-07
 -1.118010e-07
 -1.076018e-07
 -1.036705e-07
 -9.980250e-08
 -9.535205e-08
 -8.933658e-08
 -8.139604e-08
 -7.510135e-08
 -8.538831e-08
 -1.491452e-07
 -3.520188e-07
 -1.460950e-06
 -1.634365e-07
 7.481231e-07
 1.186532e-07
 -3.426733e-08
 -7.426193e-08
 -6.999028e-08
 -3.267067e-08
 2.419789e-08
 6.551517e-08
 6.777930e-08
 4.429713e-08
 1.897160e-08
 0.000000e+00
 0.000000e+00
 -2.473694e-08
 -5.889165e-08
 -1.243866e-07
 -3.000367e-07
 -1.374097e-06
 -6.134272e-08
 8.434650e-07
 1.968985e-07
 2.376865e-08
 -3.976965e-08
 -6.944518e-08
 -8.628688e-08
 -9.730372e-08
 -1.052110e-07
 -1.111795e-07
 -1.157397e-07
 -1.191241e-07
 -1.214187e-07
 -1.226406e-07