<VTKFile type="UnstructuredGrid"  version="0.1"   >
<UnstructuredGrid>  
<Piece  NumberOfPoints="     2601"  NumberOfCells="     5000">  
<Points>  
<DataArray  type="Float64"  NumberOfComponents="3"  format="ascii">  
 0.000000 0.000000 0.000000 
 0.020000 0.000000 0.000000 
 0.040000 0.000000 0.000000 
 0.060000 0.000000 0.000000 
 0.080000 0.000000 0.000000 
 0.100000 0.000000 0.000000 
 0.120000 0.000000 0.000000 
 0.140000 0.000000 0.000000 
 0.160000 0.000000 0.000000 
 0.180000 0.000000 0.000000 
 0.200000 0.000000 0.000000 
 0.220000 0.000000 0.000000 
 0.240000 0.000000 0.000000 
 0.260000 0.000000 0.000000 
 0.280000 0.000000 0.000000 
 0.300000 0.000000 0.000000 
 0.320000 0.000000 0.000000 
 0.340000 0.000000 0.000000 
 0.360000 0.000000 0.000000 
 0.380000 0.000000 0.000000 
 0.400000 0.000000 0.000000 
 0.420000 0.000000 0.000000 
 0.440000 0.000000 0.000000 
 0.460000 0.000000 0.000000 
 0.480000 0.000000 0.000000 
 0.500000 0.000000 0.000000 
 0.520000 0.000000 0.000000 
 0.540000 0.000000 0.000000 
 0.560000 0.000000 0.000000 
 0.580000 0.000000 0.000000 
 0.600000 0.000000 0.000000 
 0.620000 0.000000 0.000000 
 0.640000 0.000000 0.000000 
 0.660000 0.000000 0.000000 
 0.680000 0.000000 0.000000 
 0.700000 0.000000 0.000000 
 0.720000 0.000000 0.000000 
 0.740000 0.000000 0.000000 
 0.760000 0.000000 0.000000 
 0.780000 0.000000 0.000000 
 0.800000 0.000000 0.000000 
 0.820000 0.000000 0.000000 
 0.840000 0.000000 0.000000 
 0.860000 0.000000 0.000000 
 0.880000 0.000000 0.000000 
 0.900000 0.000000 0.000000 
 0.920000 0.000000 0.000000 
 0.940000 0.000000 0.000000 
 0.960000 0.000000 0.000000 
 0.980000 0.000000 0.000000 
 1.000000 0.000000 0.000000 
 0.000000 0.020000 0.000000 
 0.020000 0.020000 0.000000 
 0.040000 0.020000 0.000000 
 0.060000 0.020000 0.000000 
 0.080000 0.020000 0.000000 
 0.100000 0.020000 0.000000 
 0.120000 0.020000 0.000000 
 0.140000 0.020000 0.000000 
 0.160000 0.020000 0.000000 
 0.180000 0.020000 0.000000 
 0.200000 0.020000 0.000000 
 0.220000 0.020000 0.000000 
 0.240000 0.020000 0.000000 
 0.260000 0.020000 0.000000 
 0.280000 0.020000 0.000000 
 0.300000 0.020000 0.000000 
 0.320000 0.020000 0.000000 
 0.340000 0.020000 0.000000 
 0.360000 0.020000 0.000000 
 0.380000 0.020000 0.000000 
 0.400000 0.020000 0.000000 
 0.420000 0.020000 0.000000 
 0.440000 0.020000 0.000000 
 0.460000 0.020000 0.000000 
 0.480000 0.020000 0.000000 
 0.500000 0.020000 0.000000 
 0.520000 0.020000 0.000000 
 0.540000 0.020000 0.000000 
 0.560000 0.020000 0.000000 
 0.580000 0.020000 0.000000 
 0.600000 0.020000 0.000000 
 0.620000 0.020000 0.000000 
 0.640000 0.020000 0.000000 
 0.660000 0.020000 0.000000 
 0.680000 0.020000 0.000000 
 0.700000 0.020000 0.000000 
 0.720000 0.020000 0.000000 
 0.740000 0.020000 0.000000 
 0.760000 0.020000 0.000000 
 0.780000 0.020000 0.000000 
 0.800000 0.020000 0.000000 
 0.820000 0.020000 0.000000 
 0.840000 0.020000 0.000000 
 0.860000 0.020000 0.000000 
 0.880000 0.020000 0.000000 
 0.900000 0.020000 0.000000 
 0.920000 0.020000 0.000000 
 0.940000 0.020000 0.000000 
 0.960000 0.020000 0.000000 
 0.980000 0.020000 0.000000 
 1.000000 0.020000 0.000000 
 0.000000 0.040000 0.000000 
 0.020000 0.040000 0.000000 
 0.040000 0.040000 0.000000 
 0.060000 0.040000 0.000000 
 0.080000 0.040000 0.000000 
 0.100000 0.040000 0.000000 
 0.120000 0.040000 0.000000 
 0.140000 0.040000 0.000000 
 0.160000 0.040000 0.000000 
 0.180000 0.040000 0.000000 
 0.200000 0.040000 0.000000 
 0.220000 0.040000 0.000000 
 0.240000 0.040000 0.000000 
 0.260000 0.040000 0.000000 
 0.280000 0.040000 0.000000 
 0.300000 0.040000 0.000000 
 0.320000 0.040000 0.000000 
 0.340000 0.040000 0.000000 
 0.360000 0.040000 0.000000 
 0.380000 0.040000 0.000000 
 0.400000 0.040000 0.000000 
 0.420000 0.040000 0.000000 
 0.440000 0.040000 0.000000 
 0.460000 0.040000 0.000000 
 0.480000 0.040000 0.000000 
 0.500000 0.040000 0.000000 
 0.520000 0.040000 0.000000 
 0.540000 0.040000 0.000000 
 0.560000 0.040000 0.000000 
 0.580000 0.040000 0.000000 
 0.600000 0.040000 0.000000 
 0.620000 0.040000 0.000000 
 0.640000 0.040000 0.000000 
 0.660000 0.040000 0.000000 
 0.680000 0.040000 0.000000 
 0.700000 0.040000 0.000000 
 0.720000 0.040000 0.000000 
 0.740000 0.040000 0.000000 
 0.760000 0.040000 0.000000 
 0.780000 0.040000 0.000000 
 0.800000 0.040000 0.000000 
 0.820000 0.040000 0.000000 
 0.840000 0.040000 0.000000 
 0.860000 0.040000 0.000000 
 0.880000 0.040000 0.000000 
 0.900000 0.040000 0.000000 
 0.920000 0.040000 0.000000 
 0.940000 0.040000 0.000000 
 0.960000 0.040000 0.000000 
 0.980000 0.040000 0.000000 
 1.000000 0.040000 0.000000 
 0.000000 0.060000 0.000000 
 0.020000 0.060000 0.000000 
 0.040000 0.060000 0.000000 
 0.060000 0.060000 0.000000 
 0.080000 0.060000 0.000000 
 0.100000 0.060000 0.000000 
 0.120000 0.060000 0.000000 
 0.140000 0.060000 0.000000 
 0.160000 0.060000 0.000000 
 0.180000 0.060000 0.000000 
 0.200000 0.060000 0.000000 
 0.220000 0.060000 0.000000 
 0.240000 0.060000 0.000000 
 0.260000 0.060000 0.000000 
 0.280000 0.060000 0.000000 
 0.300000 0.060000 0.000000 
 0.320000 0.060000 0.000000 
 0.340000 0.060000 0.000000 
 0.360000 0.060000 0.000000 
 0.380000 0.060000 0.000000 
 0.400000 0.060000 0.000000 
 0.420000 0.060000 0.000000 
 0.440000 0.060000 0.000000 
 0.460000 0.060000 0.000000 
 0.480000 0.060000 0.000000 
 0.500000 0.060000 0.000000 
 0.520000 0.060000 0.000000 
 0.540000 0.060000 0.000000 
 0.560000 0.060000 0.000000 
 0.580000 0.060000 0.000000 
 0.600000 0.060000 0.000000 
 0.620000 0.060000 0.000000 
 0.640000 0.060000 0.000000 
 0.660000 0.060000 0.000000 
 0.680000 0.060000 0.000000 
 0.700000 0.060000 0.000000 
 0.720000 0.060000 0.000000 
 0.740000 0.060000 0.000000 
 0.760000 0.060000 0.000000 
 0.780000 0.060000 0.000000 
 0.800000 0.060000 0.000000 
 0.820000 0.060000 0.000000 
 0.840000 0.060000 0.000000 
 0.860000 0.060000 0.000000 
 0.880000 0.060000 0.000000 
 0.900000 0.060000 0.000000 
 0.920000 0.060000 0.000000 
 0.940000 0.060000 0.000000 
 0.960000 0.060000 0.000000 
 0.980000 0.060000 0.000000 
 1.000000 0.060000 0.000000 
 0.000000 0.080000 0.000000 
 0.020000 0.080000 0.000000 
 0.040000 0.080000 0.000000 
 0.060000 0.080000 0.000000 
 0.080000 0.080000 0.000000 
 0.100000 0.080000 0.000000 
 0.120000 0.080000 0.000000 
 0.140000 0.080000 0.000000 
 0.160000 0.080000 0.000000 
 0.180000 0.080000 0.000000 
 0.200000 0.080000 0.000000 
 0.220000 0.080000 0.000000 
 0.240000 0.080000 0.000000 
 0.260000 0.080000 0.000000 
 0.280000 0.080000 0.000000 
 0.300000 0.080000 0.000000 
 0.320000 0.080000 0.000000 
 0.340000 0.080000 0.000000 
 0.360000 0.080000 0.000000 
 0.380000 0.080000 0.000000 
 0.400000 0.080000 0.000000 
 0.420000 0.080000 0.000000 
 0.440000 0.080000 0.000000 
 0.460000 0.080000 0.000000 
 0.480000 0.080000 0.000000 
 0.500000 0.080000 0.000000 
 0.520000 0.080000 0.000000 
 0.540000 0.080000 0.000000 
 0.560000 0.080000 0.000000 
 0.580000 0.080000 0.000000 
 0.600000 0.080000 0.000000 
 0.620000 0.080000 0.000000 
 0.640000 0.080000 0.000000 
 0.660000 0.080000 0.000000 
 0.680000 0.080000 0.000000 
 0.700000 0.080000 0.000000 
 0.720000 0.080000 0.000000 
 0.740000 0.080000 0.000000 
 0.760000 0.080000 0.000000 
 0.780000 0.080000 0.000000 
 0.800000 0.080000 0.000000 
 0.820000 0.080000 0.000000 
 0.840000 0.080000 0.000000 
 0.860000 0.080000 0.000000 
 0.880000 0.080000 0.000000 
 0.900000 0.080000 0.000000 
 0.920000 0.080000 0.000000 
 0.940000 0.080000 0.000000 
 0.960000 0.080000 0.000000 
 0.980000 0.080000 0.000000 
 1.000000 0.080000 0.000000 
 0.000000 0.100000 0.000000 
 0.020000 0.100000 0.000000 
 0.040000 0.100000 0.000000 
 0.060000 0.100000 0.000000 
 0.080000 0.100000 0.000000 
 0.100000 0.100000 0.000000 
 0.120000 0.100000 0.000000 
 0.140000 0.100000 0.000000 
 0.160000 0.100000 0.000000 
 0.180000 0.100000 0.000000 
 0.200000 0.100000 0.000000 
 0.220000 0.100000 0.000000 
 0.240000 0.100000 0.000000 
 0.260000 0.100000 0.000000 
 0.280000 0.100000 0.000000 
 0.300000 0.100000 0.000000 
 0.320000 0.100000 0.000000 
 0.340000 0.100000 0.000000 
 0.360000 0.100000 0.000000 
 0.380000 0.100000 0.000000 
 0.400000 0.100000 0.000000 
 0.420000 0.100000 0.000000 
 0.440000 0.100000 0.000000 
 0.460000 0.100000 0.000000 
 0.480000 0.100000 0.000000 
 0.500000 0.100000 0.000000 
 0.520000 0.100000 0.000000 
 0.540000 0.100000 0.000000 
 0.560000 0.100000 0.000000 
 0.580000 0.100000 0.000000 
 0.600000 0.100000 0.000000 
 0.620000 0.100000 0.000000 
 0.640000 0.100000 0.000000 
 0.660000 0.100000 0.000000 
 0.680000 0.100000 0.000000 
 0.700000 0.100000 0.000000 
 0.720000 0.100000 0.000000 
 0.740000 0.100000 0.000000 
 0.760000 0.100000 0.000000 
 0.780000 0.100000 0.000000 
 0.800000 0.100000 0.000000 
 0.820000 0.100000 0.000000 
 0.840000 0.100000 0.000000 
 0.860000 0.100000 0.000000 
 0.880000 0.100000 0.000000 
 0.900000 0.100000 0.000000 
 0.920000 0.100000 0.000000 
 0.940000 0.100000 0.000000 
 0.960000 0.100000 0.000000 
 0.980000 0.100000 0.000000 
 1.000000 0.100000 0.000000 
 0.000000 0.120000 0.000000 
 0.020000 0.120000 0.000000 
 0.040000 0.120000 0.000000 
 0.060000 0.120000 0.000000 
 0.080000 0.120000 0.000000 
 0.100000 0.120000 0.000000 
 0.120000 0.120000 0.000000 
 0.140000 0.120000 0.000000 
 0.160000 0.120000 0.000000 
 0.180000 0.120000 0.000000 
 0.200000 0.120000 0.000000 
 0.220000 0.120000 0.000000 
 0.240000 0.120000 0.000000 
 0.260000 0.120000 0.000000 
 0.280000 0.120000 0.000000 
 0.300000 0.120000 0.000000 
 0.320000 0.120000 0.000000 
 0.340000 0.120000 0.000000 
 0.360000 0.120000 0.000000 
 0.380000 0.120000 0.000000 
 0.400000 0.120000 0.000000 
 0.420000 0.120000 0.000000 
 0.440000 0.120000 0.000000 
 0.460000 0.120000 0.000000 
 0.480000 0.120000 0.000000 
 0.500000 0.120000 0.000000 
 0.520000 0.120000 0.000000 
 0.540000 0.120000 0.000000 
 0.560000 0.120000 0.000000 
 0.580000 0.120000 0.000000 
 0.600000 0.120000 0.000000 
[...]
<PointData  Scalars="U"> 
<DataArray  type="Float64"  Name="U"  format="ascii"> 
 0.000000e+00
 0.000000e+00
 0.000000e+00
 0.000000e+00
 0.000000e+00
 0.000000e+00
 0.000000e+00
 0.000000e+00
 0.000000e+00
 0.000000e+00
 0.000000e+00
 0.000000e+00
 0.000000e+00
 0.000000e+00
 0.000000e+00
 0.000000e+00
 0.000000e+00
 0.000000e+00
 0.000000e+00
 0.000000e+00
 0.000000e+00
 0.000000e+00
 0.000000e+00
 0.000000e+00
 0.000000e+00
 0.000000e+00
 0.000000e+00
 0.000000e+00
 0.000000e+00
 0.000000e+00
 0.000000e+00
 0.000000e+00
 0.000000e+00
 0.000000e+00
 0.000000e+00
 0.000000e+00
 0.000000e+00
 0.000000e+00
 0.000000e+00
 0.000000e+00
 0.000000e+00
 0.000000e+00
 0.000000e+00
 0.000000e+00
 0.000000e+00
 0.000000e+00
 0.000000e+00
 0.000000e+00
 0.000000e+00
 0.000000e+00
 0.000000e+00
 0.000000e+00
 -1.228293e-06
 -1.996298e-08
 8.115973e-07
 1.581272e-07
 7.604407e-09
 -3.444462e-08
 -4.894551e-08
 -5.545281e-08
 -5.986747e-08
 -6.468504e-08
 -7.151056e-08
 -8.183785e-08
 -9.729330e-08
 -1.194863e-07
 -1.494193e-07
 -1.870335e-07
 -2.327811e-07
 -2.930831e-07
 -3.957499e-07
 -6.474158e-07
 -1.447685e-06
 -3.497302e-06
 -3.701780e-06
 -1.198710e-06
 -6.110072e-07
 -4.159673e-07
 -3.730204e-07
 -4.445730e-07
 -7.228607e-07
 -1.662010e-06
 -4.781507e-06
 -3.764237e-06
 -5.854931e-07
 -1.626411e-06
 -7.378256e-08
 1.819948e-05
 -1.726949e-07
 -2.747322e-07
 -2.275055e-07
 -1.661117e-07
 -1.160163e-07
 -7.428282e-08
 -3.631523e-08
 -4.361880e-09
 1.580699e-08
 2.296303e-08
 2.100231e-08
 1.468718e-08
 6.794041e-09
 0.000000e+00
 0.000000e+00
 -5.961170e-08
 1.741910e-05
 -1.595089e-08
 -9.345307e-09
 -6.093018e-08
 -8.957627e-08
 -1.042927e-07
 -1.125736e-07
 -1.192173e-07
 -1.273550e-07
 -1.395513e-07
 -1.585593e-07
 -1.877531e-07
 -2.309979e-07
 -2.911307e-07
 -3.667868e-07
 -4.535909e-07
 -5.540057e-07
 -6.779231e-07
 -8.873052e-07
 -1.347434e-06
 -1.931118e-06
 -1.942942e-06
 -1.381990e-06
 -9.188171e-07
 -7.041776e-07
 -6.477069e-07
 -7.232418e-07
 -9.672616e-07
 -1.438593e-06
 -2.001098e-06
 1.551784e-05
 -1.386984e-06
 -1.783837e-06
 1.779788e-05
 3.243915e-07
 -1.619977e-06
 -6.640303e-07
 -4.510777e-07
 -3.183927e-07
 -2.234976e-07
 -1.463646e-07
 -6.737450e-08
 4.136890e-09
 4.562228e-08
 5.510920e-08
 4.596433e-08
 3.047877e-08
 1.467882e-08
 0.000000e+00
 0.000000e+00
 6.150168e-07
 -6.225195e-08
 -1.185115e-06
 -2.065630e-07
 -1.530585e-07
 -1.582207e-07
 -1.655731e-07
 -1.710612e-07
 -1.769895e-07
 -1.860054e-07
 -2.008964e-07
 -2.252127e-07
 -2.640665e-07
 -3.248563e-07
 -4.162725e-07
 -5.373325e-07
 -6.609113e-07
 -7.964299e-07
 -9.065633e-07
 -8.470370e-07
 -9.168675e-07
 -1.225019e-06
 -1.338574e-06
 -1.190633e-06
 -9.840248e-07
 -8.462351e-07
 -8.005952e-07
 -8.432223e-07
 -9.573040e-07
 -1.027429e-06
 -5.123288e-07
 -1.209906e-06
 -1.981729e-06
 2.710269e-08
 1.688456e-05
 -2.047876e-06
 -1.134950e-06
 -8.539466e-07
 -6.131877e-07
 -4.342975e-07
 -3.112075e-07
 -2.273346e-07
 -9.379486e-08
 4.784044e-08
 1.101355e-07
 1.052496e-07
 7.604199e-08
 4.585766e-08
 2.098510e-08
 0.000000e+00
 0.000000e+00
 -1.131510e-06
 -1.052741e-07
 4.871043e-07
 -1.494774e-07
 -2.201645e-07
 -2.292563e-07
 -2.291701e-07
 -2.290781e-07
 -2.316860e-07
 -2.389039e-07
 -2.530741e-07
 -2.777350e-07
 -3.188473e-07
 -3.873607e-07
 -5.046037e-07
 -7.086126e-07
 -8.869924e-07
 -8.914376e-07
 -1.858420e-06
 -7.459418e-07
 -6.358526e-08
 -8.406846e-07
 -1.037445e-06
 -1.033534e-06
 -9.609589e-07
 -8.942189e-07
 -8.651530e-07
 -8.809959e-07
 -9.357779e-07
 -1.008486e-06
 -9.775914e-07
 -7.865697e-07
 -4.479422e-07
 3.222505e-07
 -8.525621e-07
 -2.536380e-06
 -1.266694e-06
 -8.356784e-07
 -7.497966e-07
 -4.891797e-07
 -3.337081e-07
 -3.948622e-07
 -1.371956e-07
 1.974499e-07
 2.440470e-07
 1.749774e-07
 1.043027e-07
 5.477720e-08
 2.307501e-08
 0.000000e+00
 0.000000e+00
 -5.679602e-08
 1.728693e-05
 -2.996925e-07
 -3.177965e-07
 -3.220036e-07
 -3.055276e-07
 -2.921581e-07
 -2.843306e-07
 -2.818501e-07
 -2.850371e-07
 -2.951313e-07
 -3.145600e-07
 -3.478303e-07
 -4.043466e-07
 -5.084301e-07
 -7.428354e-07
 -1.899581e-06
 -6.877461e-07
 5.665761e-08
 1.677861e-05
 -8.570174e-07
 -8.695516e-07
 -9.188294e-07
 -9.372001e-07
 -9.243157e-07
 -9.007337e-07
 -8.831200e-07
 -8.771479e-07
 -8.936955e-07
 -1.005831e-06
 -2.019885e-06
 -6.662498e-07
 3.226385e-07
 -2.828217e-07
 -8.889036e-07
 -2.373771e-06
 -1.091363e-06
 -1.647938e-07
 -1.733144e-06
 -5.247999e-07
 2.110202e-07
 -1.550813e-06
 -3.737236e-07
 8.127847e-07
 4.364745e-07
 2.389151e-07
 1.068387e-07
 4.549029e-08
 1.677575e-08
 0.000000e+00
 0.000000e+00
 7.258381e-07
 -2.223617e-07
 -1.606256e-06
 -5.833458e-07
 -4.318702e-07
 -3.765568e-07
 -3.494480e-07
 -3.343660e-07
 -3.264983e-07
 -3.244459e-07
 -3.281592e-07
 -3.382188e-07
 -3.554579e-07
 -3.804435e-07
 -4.117644e-07
 -4.379840e-07
 -5.015822e-07
 1.698970e-05
 -2.928036e-08
 -1.031839e-06
 -2.163865e-06
 -9.150001e-07
 -8.333449e-07
 -8.772034e-07
 -8.967220e-07
 -8.988989e-07
 -8.896270e-07
 -8.576389e-07
 -7.905991e-07
 -6.893644e-07
 -6.335905e-07
 1.688644e-05
 -5.430163e-07
 -5.425600e-07
 -6.666142e-07
 -8.183077e-07
 1.665028e-05
 -6.836381e-07
 -5.543634e-07
 1.698729e-05
 -4.287489e-07
 -5.305657e-07
 1.590258e-05
 -1.892683e-07
 7.958619e-07
 1.798957e-07
 4.134625e-08
 6.905652e-09
 -1.072718e-10
 0.000000e+00
 0.000000e+00
 5.874264e-08
 -2.218451e-07
 -5.548397e-07
 -5.647863e-07
 -4.742109e-07
 -4.248260e-07
 -3.960755e-07
 -3.776500e-07
 -3.655284e-07
 -3.581861e-07
 -3.548853e-07
 -3.546760e-07
 -3.551172e-07
 -3.491374e-07
 -3.146667e-07
 -1.728717e-07
 4.458786e-07
 -4.869094e-07
 -1.986887e-06
 -2.300091e-06
 -1.157706e-06
 -2.066847e-07
 -7.393319e-07
 -8.520028e-07
 -8.845113e-07
 -9.047853e-07
 -9.185591e-07
 -8.770056e-07
 -7.198855e-07
 -4.096613e-07
 3.715715e-07
 -4.517639e-07
 -1.767131e-06
 -7.236905e-07
 -4.865670e-07
 1.600186e-07
 -6.456223e-07
 -1.660226e-06
 2.137995e-07
 -3.746857e-07
 -1.415444e-06
 3.661111e-07
 -3.563661e-07
 1.588996e-05
 -4.298654e-07
 -1.800393e-07
 -9.986971e-08
 -5.252225e-08
 -2.245977e-08
 0.000000e+00
 0.000000e+00
 -9.150014e-08
 -2.527570e-07
 -4.134536e-07
 -4.796318e-07
 -4.760336e-07
 -4.546187e-07
 -4.333208e-07
 -4.149900e-07
 -3.998934e-07
 -3.878551e-07
 -3.783114e-07
 -3.698561e-07
 -3.592808e-07
 -3.396167e-07
 -2.968680e-07
 -2.127232e-07
 -1.692388e-07
 -4.323451e-07
 -7.701371e-07
 -9.175911e-07
 1.650422e-05
 -9.573405e-07
 -8.965214e-07
 -8.828795e-07
 -8.777637e-07
 -9.061496e-07
 -9.991172e-07
 -1.026355e-06
 -7.710158e-07
 -4.312237e-07
 -1.224120e-07
 -1.980411e-07
 -5.742668e-07
 -6.508336e-07
 -5.682143e-07
 -5.256369e-07
 -6.438717e-07
 -5.763153e-07
 -2.227812e-07
 -2.031245e-07
 -2.845782e-07
 -8.213269e-09
 5.419880e-07
 -5.351996e-07
 -1.731682e-06
 -4.824904e-07
 -2.103266e-07
 -9.553767e-08
 -3.751132e-08
 0.000000e+00
 0.000000e+00
 -1.382527e-07
 -2.790898e-07
 -3.972346e-07
 -4.654998e-07
 -4.872571e-07
 -4.826859e-07
 -4.673647e-07
 -4.490577e-07
 -4.311448e-07
 -4.149011e-07
 -4.003752e-07
 -3.865784e-07
 -3.713590e-07
 -3.514285e-07
 -3.243322e-07
 -2.985680e-07
 -3.111572e-07
 -3.850402e-07
 -3.827666e-07
 1.476589e-07
 -8.177260e-07
 -2.155051e-06
 -1.082557e-06
 -9.015848e-07
 -8.396990e-07
 -8.439439e-07
 -9.777822e-07
 -2.041226e-06
 -8.240786e-07
 -9.195855e-07
 -2.280494e-07
 4.424079e-07
 -3.464063e-07
 -5.693086e-07
 -6.746480e-07
 -8.805633e-07
 -9.753787e-07
 -4.381844e-07
 7.448130e-08
 -1.789313e-08
 -1.689064e-07
 -1.490100e-07
 -1.215921e-07
 -3.484871e-07
 -5.366351e-07
 -3.916448e-07
 -1.953354e-07
 -8.939185e-08
 -3.408065e-08
 0.000000e+00
 0.000000e+00
 -1.755898e-07
 -3.275772e-07
 -4.379673e-07
 -5.006841e-07
 -5.233101e-07
 -5.200904e-07
 -5.037301e-07
 -4.824179e-07
 -4.605394e-07
 -4.400655e-07
 -4.215163e-07
 -4.044984e-07
 -3.881035e-07
 -3.716442e-07
 -3.565097e-07
 -3.491620e-07
 -3.592460e-07
 -3.805415e-07
 -3.749397e-07
 -3.950224e-07
 -6.868727e-07
 -9.910482e-07
 -9.604971e-07
 -8.319254e-07
 -7.486690e-07
 -6.851804e-07
 -6.180822e-07
 -5.951497e-07
 1.692383e-05
 -5.301748e-07
 1.696533e-05
 -5.311785e-07
 -5.391263e-07
 -5.868983e-07
 -6.694192e-07
 -9.795693e-07
 -3.108828e-06
 -4.735956e-07
 1.348359e-06
 6.466081e-08
 -2.673068e-07
 -3.562995e-07
 -3.502567e-07
 -3.090676e-07
 -2.531476e-07
 -1.727656e-07
 -8.883311e-08
 -3.512946e-08
 -1.083328e-08
 0.000000e+00
 0.000000e+00
 -2.374038e-07
 -4.197719e-07
 -5.289783e-07
 -5.770872e-07
 -5.847554e-07
 -5.697802e-07
 -5.444066e-07
 -5.159585e-07
 -4.883001e-07
 -4.631575e-07
 -4.410329e-07
 -4.218016e-07
 -4.052017e-07
 -3.914475e-07
 -3.820349e-07
 -3.800562e-07
 -3.881961e-07
 -4.050287e-07
 -4.316922e-07
 -4.962940e-07
 -6.264735e-07
 -7.460197e-07
 -7.671118e-07
 -7.167147e-07
 -6.392765e-07
 -5.268123e-07
 -2.968205e-07
 4.367360e-07
 -2.759981e-07
 -9.311214e-07
 -7.625044e-07
 -1.910797e-06
 -7.845392e-07
 -5.820731e-07
 -4.926634e-07
 -4.213233e-07
 -4.614918e-07
 3.445698e-05
 -4.761553e-07
 -4.579537e-07
 -5.570250e-07
 -6.509981e-07
 -6.081798e-07
 -2.760832e-07
 -3.046793e-09
 3.932430e-08
 5.690912e-08
 5.033573e-08
 2.480774e-08
 0.000000e+00
 0.000000e+00
 -3.621496e-07
 -5.904530e-07
 -6.820820e-07
 -6.932176e-07
 -6.678435e-07
 -6.290307e-07
 -5.875882e-07
 -5.483657e-07
 -5.133505e-07
 -4.831299e-07
 -4.576295e-07
 -4.365445e-07
 -4.196733e-07
 -4.072434e-07
 -4.001668e-07
 -3.999279e-07
 -4.079173e-07
 -4.252985e-07
 -4.555570e-07
 -5.057029e-07
 -5.729461e-07
 -6.291672e-07
 -6.448743e-07
 -6.176727e-07
 -5.563085e-07
 -4.567339e-07
 -3.011405e-07
 -1.621507e-07
 -2.827417e-07
 -4.859503e-07
 -6.770002e-07
 -8.217664e-07
 -6.985138e-07
 -4.955678e-07
 -2.957281e-07
 8.294294e-08
 1.383968e-06
 -4.361274e-07
 -3.094444e-06
 -1.023137e-06
 -8.457232e-07
 -9.377974e-07
 -1.719468e-06
 -2.398748e-07
 6.085506e-07
 1.861959e-07
 2.507457e-07
 1.535912e-07
 5.492081e-08
 0.000000e+00
 0.000000e+00
 -6.514693e-07
 -9.059160e-07
 -9.115314e-07
 -8.421442e-07
 -7.624591e-07
 -6.900079e-07
 -6.281137e-07
 -5.763501e-07
 -5.335037e-07
 -4.983463e-07
 -4.698272e-07
 -4.471460e-07
 -4.298272e-07
 -4.178030e-07
 -4.114422e-07
 -4.114352e-07
 -4.185834e-07
 -4.338012e-07
 -4.582823e-07
 -4.921135e-07
 -5.299676e-07
 -5.592492e-07
 -5.674341e-07
 -5.499587e-07
 -5.082065e-07
 -4.451262e-07
 -3.728238e-07
 -3.334918e-07
 -3.748200e-07
 -4.646138e-07
 -5.504415e-07
 -5.841550e-07
 -5.226479e-07
 -3.951669e-07
 -2.255785e-07
 7.469205e-09
 1.410496e-07
 -3.359259e-07
 -9.015923e-07
 -8.705948e-07
 -7.864369e-07
 -1.717333e-06
 -4.035491e-07
 1.784599e-05
 -1.285365e-06
 -6.986228e-08
 8.070545e-07
 1.801128e-07
 3.859297e-08
 0.000000e+00
 0.000000e+00
 -1.480186e-06
 -1.445926e-06
 -1.196383e-06
 -9.949330e-07
 -8.480121e-07
 -7.399690e-07
 -6.584243e-07
 -5.954268e-07
 -5.459997e-07
 -5.069656e-07
 -4.762405e-07
 -4.524543e-07
 -4.347637e-07
 -4.227575e-07
 -4.163757e-07
 -4.157916e-07
 -4.212640e-07
 -4.329791e-07
 -4.507129e-07
 -4.729256e-07
 -4.955417e-07
 -5.121543e-07
 -5.167286e-07
 -5.064442e-07
 -4.822332e-07
 -4.487719e-07
 -4.166985e-07
 -4.029912e-07
 -4.181124e-07
 -4.494681e-07
 -4.717024e-07
 -4.617596e-07
 -4.094221e-07
 -3.248327e-07
 -2.251665e-07
 -1.397436e-07
 -1.483711e-07
 -3.146403e-07
 -4.810956e-07
 -4.630344e-07
 -2.938311e-07
 -6.150699e-08
 1.810285e-05
 -2.133074e-07
 -1.503651e-06
 1.703556e-05
 -2.266795e-07
 -1.048587e-07
 -5.425183e-08
 0.000000e+00
 0.000000e+00
 -3.530339e-06
 -2.020204e-06
 -1.414424e-06
 -1.092127e-06
 -8.955809e-07
 -7.641952e-07
 -6.706689e-07
 -6.012192e-07
 -5.482759e-07
 -5.073896e-07
 -4.758002e-07
 -4.517388e-07
 -4.340756e-07
 -4.221278e-07
 -4.155251e-07
 -4.140822e-07
 -4.176520e-07
 -4.259377e-07
 -4.382013e-07
 -4.528529e-07
 -4.671759e-07
 -4.777250e-07
 -4.815309e-07
 -4.773861e-07
 -4.664861e-07
 -4.525576e-07
 -4.414605e-07
 -4.386045e-07
 -4.430919e-07
 -4.440527e-07
 -4.270842e-07
 -3.862132e-07
 -3.290475e-07
 -2.697555e-07
 -2.213360e-07
 -1.999129e-07
 -2.250825e-07
 -2.853845e-07
 -3.040733e-07
 -1.966449e-07
 1.000802e-07
 9.182110e-07
 1.535152e-07
 -1.223824e-06
 2.171063e-07
 -4.746504e-07
 -1.594855e-06
 -4.074676e-07
 -1.481547e-07
 0.000000e+00
 0.000000e+00
 -3.713097e-06
 -1.973564e-06
 -1.390740e-06
 -1.076252e-06
 -8.826460e-07
 -7.525430e-07
 -6.597745e-07
 -5.909854e-07
 -5.387584e-07
 -4.986732e-07
 -4.679345e-07
 -4.446980e-07
 -4.277243e-07
 -4.161840e-07
 -4.095222e-07
 -4.073380e-07
 -4.092555e-07
 -4.147742e-07
 -4.230937e-07
 -4.329591e-07
 -4.426611e-07
 -4.503565e-07
 -4.546984e-07
 -4.555092e-07
 -4.541806e-07
 -4.535668e-07
 -4.568974e-07
 -4.648481e-07
 -4.708146e-07
 -4.581937e-07
 -4.090724e-07
 -3.281004e-07
 -2.501001e-07
 -2.042938e-07
 -1.923825e-07
 -2.089797e-07
 -2.517711e-07
 -2.965286e-07
 -2.651523e-07
 -9.415400e-08
 1.519079e-07
 3.017268e-07
 9.470054e-08
 -1.910249e-07
 -2.021943e-07
 -3.384906e-07
 -5.044408e-07
 -3.696892e-07
 -1.604173e-07
 0.000000e+00
 0.000000e+00
 -1.178533e-06
 -1.345318e-06
 -1.137222e-06
 -9.512933e-07
 -8.105899e-07
 -7.054399e-07
 -6.257986e-07
 -5.646511e-07
 -5.173524e-07
 -4.807603e-07
 -4.526635e-07
 -4.314611e-07
 -4.159852e-07
 -4.053878e-07
 -3.990466e-07
 -3.964720e-07
 -3.972080e-07
 -4.007301e-07
 -4.063548e-07
 -4.131962e-07
 -4.202344e-07
 -4.265449e-07
 -4.316716e-07
 -4.360394e-07
 -4.412770e-07
 -4.502734e-07
 -4.664770e-07
 -4.911023e-07
 -5.162571e-07
 -5.129693e-07
 -4.298046e-07
 -2.654804e-07
 -1.326084e-07
 -1.043520e-07
 -1.365230e-07
 -1.890990e-07
 -2.639905e-07
 -3.827005e-07
 -3.973932e-07
 -6.971988e-08
 2.367430e-07
 2.087280e-07
 5.000718e-08
 -9.933480e-08
 -1.851846e-07
 -2.557028e-07
 -2.922585e-07
 -2.364897e-07
 -1.232532e-07
 0.000000e+00
 0.000000e+00
 -5.542375e-07
 -8.131606e-07
 -8.383580e-07
 -7.786248e-07
 -7.033678e-07
 -6.333909e-07
 -5.737206e-07
 -5.247086e-07
 -4.853880e-07
 -4.544501e-07
 -4.305689e-07
 -4.125506e-07
 -3.994053e-07
 -3.903574e-07
 -3.848101e-07
 -3.822839e-07
 -3.823465e-07
 -3.845467e-07
 -3.883719e-07
 -3.932481e-07
 -3.986120e-07
 -4.040664e-07
 -4.096106e-07
 -4.159269e-07
 -4.247592e-07
 -4.395259e-07
 -4.662443e-07
 -5.135303e-07
 -5.836404e-07
 -6.544632e-07
 -5.609850e-07
 -1.613065e-07
 1.178295e-07
 4.994374e-08
 -6.846041e-08
 -1.499554e-07
 -2.315719e-07
 -4.037754e-07
 -1.458764e-06
 -1.147267e-07
 8.224010e-07
 1.887457e-07
 -3.340690e-09
 -1.023159e-07
 -1.617882e-07
 -1.957810e-07
 -1.987741e-07
 -1.595792e-07
 -8.704208e-08
 0.000000e+00
 0.000000e+00
 -3.133299e-07
 -5.193369e-07
 -6.051269e-07
 -6.146769e-07
 -5.887731e-07
 -5.504316e-07
 -5.108164e-07
 -4.750312e-07
 -4.450414e-07
 -4.211071e-07
 -4.026470e-07
 -3.888040e-07
 -3.787586e-07
 -3.718463e-07
 -3.675601e-07
 -3.655036e-07
 -3.653357e-07
 -3.667262e-07
 -3.693371e-07
 -3.728380e-07
 -3.769639e-07
 -3.816100e-07
 -3.869483e-07
 -3.935653e-07
 -4.027434e-07
 -4.174131e-07
 -4.452606e-07
 -5.069216e-07
 -6.509766e-07
 -8.209054e-07
 -1.578226e-06
 8.190372e-09
 8.829581e-07
 1.622850e-07
 -4.416037e-08
 -1.152618e-07
 -1.368624e-07
 -1.260417e-07
 -1.476168e-07
 1.732390e-05
 -1.242141e-07
 -9.441561e-08
 -1.211132e-07
 -1.430862e-07
 -1.598290e-07
 -1.651973e-07
 -1.524980e-07
 -1.176253e-07
 -6.384923e-08
 0.000000e+00
 0.000000e+00
 -2.009800e-07
 -3.552201e-07
 -4.458131e-07
 -4.827922e-07
 -4.847312e-07
 -4.678236e-07
 -4.435962e-07
 -4.192865e-07
 -3.985069e-07
 -3.822511e-07
 -3.701197e-07
 -3.612890e-07
 -3.550063e-07
 -3.507277e-07
 -3.480890e-07
 -3.468359e-07
 -3.467641e-07
 -3.476854e-07
 -3.494220e-07
 -3.518290e-07
 -3.548417e-07
 -3.585282e-07
 -3.631087e-07
 -3.688652e-07
 -3.758927e-07
 -3.840293e-07
 -3.951294e-07
 -4.252926e-07
 -5.531771e-07
 -1.567668e-06
 -2.483037e-07
 1.814027e-05
 5.382967e-08
 -7.161444e-08
 -1.260073e-07
 -1.218030e-07
 -6.807127e-08
 1.020726e-07
 7.489669e-07
 -1.548299e-07
 -1.469003e-06
 -4.016759e-07
 -2.386727e-07
 -1.889571e-07
 -1.690610e-07
 -1.529949e-07
 -1.299120e-07
 -9.557003e-08
 -5.079152e-08
 0.000000e+00
 0.000000e+00
 -1.416007e-07
 -2.596599e-07
 -3.411852e-07
 -3.852906e-07
 -3.987118e-07
 -3.918231e-07
 -3.758414e-07
 -3.595668e-07
 -3.472255e-07
 -3.392149e-07
 -3.343138e-07
 -3.312647e-07
 -3.292807e-07
 -3.279870e-07
 -3.272401e-07
 -3.269888e-07
 -3.272004e-07
 -3.278342e-07
 -3.288494e-07
 -3.302375e-07
 -3.320737e-07
 -3.345684e-07
 -3.380635e-07
 -3.428088e-07
 -3.480463e-07
 -3.493297e-07
 -3.334765e-07
 -2.766867e-07
 -1.484806e-07
 4.397744e-08
 1.817129e-05
 -1.933209e-07
 -1.485599e-06
 -4.312757e-07
 -2.541479e-07
 -1.689913e-07
 -8.756327e-08
 2.549370e-08
 9.210454e-08
 -1.442710e-07
 -4.219192e-07
 -3.880580e-07
 -2.723395e-07
 -2.115516e-07
 -1.763743e-07
 -1.487647e-07
 -1.194568e-07
 -8.457326e-08
 -4.398868e-08
 0.000000e+00
 0.000000e+00
 -1.078500e-07
 -2.028345e-07
 -2.751922e-07
 -3.190347e-07
 -3.331805e-07
 -3.244833e-07
 -3.075141e-07
 -2.952336e-07
 -2.913719e-07
 -2.930971e-07
 -2.967488e-07
 -3.002461e-07
 -3.029015e-07
 -3.047132e-07
 -3.058971e-07
 -3.066766e-07
 -3.072137e-07
 -3.076066e-07
 -3.079176e-07
 -3.082213e-07
 -3.086743e-07
 -3.096089e-07
 -3.116459e-07
 -3.157408e-07
 -3.226660e-07
 -3.295019e-07
 -3.126901e-07
 -1.953624e-07
 1.377112e-07
 9.780783e-07
 1.437742e-07
 -1.442723e-06
 -6.819904e-07
 -4.935379e-07
 -3.184163e-07
 -2.172409e-07
 -1.443096e-07
 -9.078052e-08
 -9.004561e-08
 -1.749472e-07
 -2.703052e-07
 -2.870467e-07
 -2.512537e-07
 -2.109664e-07
 -1.774944e-07
 -1.470802e-07
 -1.152019e-07
 -7.968313e-08
 -4.076533e-08
 0.000000e+00
 0.000000e+00
 -8.757819e-08
 -1.692867e-07
 -2.383706e-07
 -2.839067e-07
 -2.921467e-07
 -2.650834e-07
 -2.325624e-07
 -2.213252e-07
 -2.299296e-07
 -2.453887e-07
 -2.595765e-07
 -2.701739e-07
 -2.773951e-07
 -2.820646e-07
 -2.849468e-07
 -2.865952e-07
 -2.873647e-07
 -2.874625e-07
 -2.870059e-07
 -2.860844e-07
 -2.848419e-07
 -2.836121e-07
 -2.831954e-07
 -2.854950e-07
 -2.950488e-07
 -3.223344e-07
 -3.853857e-07
 -3.305447e-07
 8.893652e-08
 4.247897e-07
 1.154775e-07
 -3.551177e-07
 -4.756837e-07
 -4.032523e-07
 -3.155895e-07
 -2.427427e-07
 -1.896779e-07
 -1.589005e-07
 -1.594257e-07
 -1.910385e-07
 -2.270627e-07
 -2.388344e-07
 -2.258073e-07
 -2.019909e-07
 -1.756457e-07
 -1.473144e-07
 -1.150250e-07
 -7.840501e-08
 -3.941027e-08
 0.000000e+00
 0.000000e+00
 -7.313979e-08
 -1.476233e-07
 -2.239255e-07
 -2.886750e-07
 -2.929274e-07
 -2.103484e-07
 -1.298829e-07
 -1.259592e-07
 -1.629968e-07
 -1.999717e-07
 -2.263559e-07
 -2.435458e-07
 -2.544181e-07
 -2.611645e-07
 -2.651964e-07
 -2.673683e-07
 -2.681723e-07
 -2.678677e-07
 -2.665667e-07
 -2.642971e-07
 -2.610659e-07
 -2.569639e-07
 -2.524156e-07
 -2.489200e-07
 -2.515516e-07
 -2.786257e-07
 -4.055314e-07
 -1.419823e-06
 -5.051355e-08
 8.567329e-07
 1.079212e-07
 -2.013403e-07
 -3.216474e-07
 -3.280407e-07
 -2.915841e-07
 -2.489880e-07
 -2.145593e-07
 -1.945005e-07
 -1.915576e-07
 -2.021179e-07
 -2.146477e-07
 -2.178381e-07
 -2.094625e-07
 -1.941281e-07
 -1.754169e-07
 -1.518736e-07
 -1.196764e-07
 -7.947275e-08
 -3.809203e-08
 0.000000e+00
 0.000000e+00
 -5.747215e-08
 -1.228145e-07
 -2.123791e-07
 -3.543110e-07
 -4.103209e-07
 -1.492827e-07
 7.676674e-08
 6.445530e-09
 -1.024219e-07
 -1.665377e-07
 -2.023897e-07
 -2.230826e-07
 -2.354327e-07
 -2.428881e-07
 -2.472474e-07
 -2.494717e-07
 -2.500645e-07
 -2.492554e-07
 -2.470919e-07
 -2.434818e-07
 -2.382058e-07
 -2.309047e-07
 -2.210411e-07
 -2.078190e-07
 -1.899897e-07
 -1.650476e-07
 -1.242301e-07
 -1.271108e-07
 1.734570e-05
 -1.302473e-07
 -1.565866e-07
 -2.381343e-07
 -2.821001e-07
 -2.877846e-07
 -2.703680e-07
 -2.459564e-07
 -2.247551e-07
 -2.119007e-07
 -2.084776e-07
 -2.112247e-07
 -2.135177e-07
 -2.097102e-07
 -1.997548e-07
 -1.886020e-07
 -1.794651e-07
 -1.659811e-07
 -1.337809e-07
 -8.121848e-08
 -3.167125e-08
 0.000000e+00
 0.000000e+00
 -3.541432e-08
 -7.634541e-08
 -1.485302e-07
 -3.366133e-07
 -1.428883e-06
 -1.358312e-07
 7.516423e-07
 9.178479e-08
 -9.053358e-08
 -1.598010e-07
 -1.925314e-07
 -2.104457e-07
 -2.210912e-07
 -2.275789e-07
 -2.313619e-07
 -2.331634e-07