<VTKFile type="UnstructuredGrid"  version="0.1"   >
<UnstructuredGrid>  
<Piece  NumberOfPoints="     2601"  NumberOfCells="     5000">  
<Points>  
<DataArray  type="Float64"  NumberOfComponents="3"  format="ascii">  
 0.000000 0.000000 0.000000 
 0.020000 0.000000 0.000000 
 0.040000 0.000000 0.000000 
 0.060000 0.000000 0.000000 
 0.080000 0.000000 0.000000 
 0.100000 0.000000 0.000000 
 0.120000 0.000000 0.000000 
 0.140000 0.000000 0.000000 
 0.160000 0.000000 0.000000 
 0.180000 0.000000 0.000000 
 0.200000 0.000000 0.000000 
 0.220000 0.000000 0.000000 
 0.240000 0.000000 0.000000 
 0.260000 0.000000 0.000000 
 0.280000 0.000000 0.000000 
 0.300000 0.000000 0.000000 
 0.320000 0.000000 0.000000 
 0.340000 0.000000 0.000000 
 0.360000 0.000000 0.000000 
 0.380000 0.000000 0.000000 
 0.400000 0.000000 0.000000 
 0.420000 0.000000 0.000000 
 0.440000 0.000000 0.000000 
 0.460000 0.000000 0.000000 
 0.480000 0.000000 0.000000 
 0.500000 0.000000 0.000000 
 0.520000 0.000000 0.000000 
 0.540000 0.000000 0.000000 
 0.560000 0.000000 0.000000 
 0.580000 0.000000 0.000000 
 0.600000 0.000000 0.000000 
 0.620000 0.000000 0.000000 
 0.640000 0.000000 0.000000 
 0.660000 0.000000 0.000000 
 0.680000 0.000000 0.000000 
 0.700000 0.000000 0.000000 
 0.720000 0.000000 0.000000 
 0.740000 0.000000 0.000000 
 0.760000 0.000000 0.000000 
 0.780000 0.000000 0.000000 
 0.800000 0.000000 0.000000 
 0.820000 0.000000 0.000000 
 0.840000 0.000000 0.000000 
 0.860000 0.000000 0.000000 
 0.880000 0.000000 0.000000 
 0.900000 0.000000 0.000000 
 0.920000 0.000000 0.000000 
 0.940000 0.000000 0.000000 
 0.960000 0.000000 0.000000 
 0.980000 0.000000 0.000000 
 1.000000 0.000000 0.000000 
 0.000000 0.020000 0.000000 
 0.020000 0.020000 0.000000 
 0.040000 0.020000 0.000000 
 0.060000 0.020000 0.000000 
 0.080000 0.020000 0.000000 
 0.100000 0.020000 0.000000 
 0.120000 0.020000 0.000000 
 0.140000 0.020000 0.000000 
 0.160000 0.020000 0.000000 
 0.180000 0.020000 0.000000 
 0.200000 0.020000 0.000000 
 0.220000 0.020000 0.000000 
 0.240000 0.020000 0.000000 
 0.260000 0.020000 0.000000 
 0.280000 0.020000 0.000000 
 0.300000 0.020000 0.000000 
 0.320000 0.020000 0.000000 
 0.340000 0.020000 0.000000 
 0.360000 0.020000 0.000000 
 0.380000 0.020000 0.000000 
 0.400000 0.020000 0.000000 
 0.420000 0.020000 0.000000 
 0.440000 0.020000 0.000000 
 0.460000 0.020000 0.000000 
 0.480000 0.020000 0.000000 
 0.500000 0.020000 0.000000 
 0.520000 0.020000 0.000000 
 0.540000 0.020000 0.000000 
 0.560000 0.020000 0.000000 
 0.580000 0.020000 0.000000 
 0.600000 0.020000 0.000000 
 0.620000 0.020000 0.000000 
 0.640000 0.020000 0.000000 
 0.660000 0.020000 0.000000 
 0.680000 0.020000 0.000000 
 0.700000 0.020000 0.000000 
 0.720000 0.020000 0.000000 
 0.740000 0.020000 0.000000 
 0.760000 0.020000 0.000000 
 0.780000 0.020000 0.000000 
 0.800000 0.020000 0.000000 
 0.820000 0.020000 0.000000 
 0.840000 0.020000 0.000000 
 0.860000 0.020000 0.000000 
 0.880000 0.020000 0.000000 
 0.900000 0.020000 0.000000 
 0.920000 0.020000 0.000000 
 0.940000 0.020000 0.000000 
 0.960000 0.020000 0.000000 
 0.980000 0.020000 0.000000 
 1.000000 0.020000 0.000000 
 0.000000 0.040000 0.000000 
 0.020000 0.040000 0.000000 
 0.040000 0.040000 0.000000 
 0.060000 0.040000 0.000000 
 0.080000 0.040000 0.000000 
 0.100000 0.040000 0.000000 
 0.120000 0.040000 0.000000 
 0.140000 0.040000 0.000000 
 0.160000 0.040000 0.000000 
 0.180000 0.040000 0.000000 
 0.200000 0.040000 0.000000 
 0.220000 0.040000 0.000000 
 0.240000 0.040000 0.000000 
 0.260000 0.040000 0.000000 
 0.280000 0.040000 0.000000 
 0.300000 0.040000 0.000000 
 0.320000 0.040000 0.000000 
 0.340000 0.040000 0.000000 
 0.360000 0.040000 0.000000 
 0.380000 0.040000 0.000000 
 0.400000 0.040000 0.000000 
 0.420000 0.040000 0.000000 
 0.440000 0.040000 0.000000 
 0.460000 0.040000 0.000000 
 0.480000 0.040000 0.000000 
 0.500000 0.040000 0.000000 
 0.520000 0.040000 0.000000 
 0.540000 0.040000 0.000000 
 0.560000 0.040000 0.000000 
 0.580000 0.040000 0.000000 
 0.600000 0.040000 0.000000 
 0.620000 0.040000 0.000000 
 0.640000 0.040000 0.000000 
 0.660000 0.040000 0.000000 
 0.680000 0.040000 0.000000 
 0.700000 0.040000 0.000000 
 0.720000 0.040000 0.000000 
 0.740000 0.040000 0.000000 
 0.760000 0.040000 0.000000 
 0.780000 0.040000 0.000000 
 0.800000 0.040000 0.000000 
 0.820000 0.040000 0.000000 
 0.840000 0.040000 0.000000 
 0.860000 0.040000 0.000000 
 0.880000 0.040000 0.000000 
 0.900000 0.040000 0.000000 
 0.920000 0.040000 0.000000 
 0.940000 0.040000 0.000000 
 0.960000 0.040000 0.000000 
 0.980000 0.040000 0.000000 
 1.000000 0.040000 0.000000 
 0.000000 0.060000 0.000000 
 0.020000 0.060000 0.000000 
 0.040000 0.060000 0.000000 
 0.060000 0.060000 0.000000 
 0.080000 0.060000 0.000000 
 0.100000 0.060000 0.000000 
 0.120000 0.060000 0.000000 
 0.140000 0.060000 0.000000 
 0.160000 0.060000 0.000000 
 0.180000 0.060000 0.000000 
 0.200000 0.060000 0.000000 
 0.220000 0.060000 0.000000 
 0.240000 0.060000 0.000000 
 0.260000 0.060000 0.000000 
 0.280000 0.060000 0.000000 
 0.300000 0.060000 0.000000 
 0.320000 0.060000 0.000000 
 0.340000 0.060000 0.000000 
 0.360000 0.060000 0.000000 
 0.380000 0.060000 0.000000 
 0.400000 0.060000 0.000000 
 0.420000 0.060000 0.000000 
 0.440000 0.060000 0.000000 
 0.460000 0.060000 0.000000 
 0.480000 0.060000 0.000000 
 0.500000 0.060000 0.000000 
 0.520000 0.060000 0.000000 
 0.540000 0.060000 0.000000 
 0.560000 0.060000 0.000000 
 0.580000 0.060000 0.000000 
 0.600000 0.060000 0.000000 
 0.620000 0.060000 0.000000 
 0.640000 0.060000 0.000000 
 0.660000 0.060000 0.000000 
 0.680000 0.060000 0.000000 
 0.700000 0.060000 0.000000 
 0.720000 0.060000 0.000000 
 0.740000 0.060000 0.000000 
 0.760000 0.060000 0.000000 
 0.780000 0.060000 0.000000 
 0.800000 0.060000 0.000000 
 0.820000 0.060000 0.000000 
 0.840000 0.060000 0.000000 
 0.860000 0.060000 0.000000 
 0.880000 0.060000 0.000000 
 0.900000 0.060000 0.000000 
 0.920000 0.060000 0.000000 
 0.940000 0.060000 0.000000 
 0.960000 0.060000 0.000000 
 0.980000 0.060000 0.000000 
 1.000000 0.060000 0.000000 
 0.000000 0.080000 0.000000 
 0.020000 0.080000 0.000000 
 0.040000 0.080000 0.000000 
 0.060000 0.080000 0.000000 
 0.080000 0.080000 0.000000 
 0.100000 0.080000 0.000000 
 0.120000 0.080000 0.000000 
 0.140000 0.080000 0.000000 
 0.160000 0.080000 0.000000 
 0.180000 0.080000 0.000000 
 0.200000 0.080000 0.000000 
 0.220000 0.080000 0.000000 
 0.240000 0.080000 0.000000 
 0.260000 0.080000 0.000000 
 0.280000 0.080000 0.000000 
 0.300000 0.080000 0.000000 
 0.320000 0.080000 0.000000 
 0.340000 0.080000 0.000000 
 0.360000 0.080000 0.000000 
 0.380000 0.080000 0.000000 
 0.400000 0.080000 0.000000 
 0.420000 0.080000 0.000000 
 0.440000 0.080000 0.000000 
 0.460000 0.080000 0.000000 
 0.480000 0.080000 0.000000 
 0.500000 0.080000 0.000000 
 0.520000 0.080000 0.000000 
 0.540000 0.080000 0.000000 
 0.560000 0.080000 0.000000 
 0.580000 0.080000 0.000000 
 0.600000 0.080000 0.000000 
 0.620000 0.080000 0.000000 
 0.640000 0.080000 0.000000 
 0.660000 0.080000 0.000000 
 0.680000 0.080000 0.000000 
 0.700000 0.080000 0.000000 
 0.720000 0.080000 0.000000 
 0.740000 0.080000 0.000000 
 0.760000 0.080000 0.000000 
 0.780000 0.080000 0.000000 
 0.800000 0.080000 0.000000 
 0.820000 0.080000 0.000000 
 0.840000 0.080000 0.000000 
 0.860000 0.080000 0.000000 
 0.880000 0.080000 0.000000 
 0.900000 0.080000 0.000000 
 0.920000 0.080000 0.000000 
 0.940000 0.080000 0.000000 
 0.960000 0.080000 0.000000 
 0.980000 0.080000 0.000000 
 1.000000 0.080000 0.000000 
 0.000000 0.100000 0.000000 
 0.020000 0.100000 0.000000 
 0.040000 0.100000 0.000000 
 0.060000 0.100000 0.000000 
 0.080000 0.100000 0.000000 
 0.100000 0.100000 0.000000 
 0.120000 0.100000 0.000000 
 0.140000 0.100000 0.000000 
 0.160000 0.100000 0.000000 
 0.180000 0.100000 0.000000 
 0.200000 0.100000 0.000000 
 0.220000 0.100000 0.000000 
 0.240000 0.100000 0.000000 
 0.260000 0.100000 0.000000 
 0.280000 0.100000 0.000000 
 0.300000 0.100000 0.000000 
 0.320000 0.100000 0.000000 
 0.340000 0.100000 0.000000 
 0.360000 0.100000 0.000000 
 0.380000 0.100000 0.000000 
 0.400000 0.100000 0.000000 
 0.420000 0.100000 0.000000 
 0.440000 0.100000 0.000000 
 0.460000 0.100000 0.000000 
 0.480000 0.100000 0.000000 
 0.500000 0.100000 0.000000 
 0.520000 0.100000 0.000000 
 0.540000 0.100000 0.000000 
 0.560000 0.100000 0.000000 
 0.580000 0.100000 0.000000 
 0.600000 0.100000 0.000000 
 0.620000 0.100000 0.000000 
 0.640000 0.100000 0.000000 
 0.660000 0.100000 0.000000 
 0.680000 0.100000 0.000000 
 0.700000 0.100000 0.000000 
 0.720000 0.100000 0.000000 
 0.740000 0.100000 0.000000 
 0.760000 0.100000 0.000000 
 0.780000 0.100000 0.000000 
 0.800000 0.100000 0.000000 
 0.820000 0.100000 0.000000 
 0.840000 0.100000 0.000000 
 0.860000 0.100000 0.000000 
 0.880000 0.100000 0.000000 
 0.900000 0.100000 0.000000 
 0.920000 0.100000 0.000000 
 0.940000 0.100000 0.000000 
 0.960000 0.100000 0.000000 
 0.980000 0.100000 0.000000 
 1.000000 0.100000 0.000000 
 0.000000 0.120000 0.000000 
 0.020000 0.120000 0.000000 
 0.040000 0.120000 0.000000 
 0.060000 0.120000 0.000000 
 0.080000 0.120000 0.000000 
 0.100000 0.120000 0.000000 
 0.120000 0.120000 0.000000 
 0.140000 0.120000 0.000000 
 0.160000 0.120000 0.000000 
 0.180000 0.120000 0.000000 
 0.200000 0.120000 0.000000 
 0.220000 0.120000 0.000000 
 0.240000 0.120000 0.000000 
 0.260000 0.120000 0.000000 
 0.280000 0.120000 0.000000 
 0.300000 0.120000 0.000000 
 0.320000 0.120000 0.000000 
 0.340000 0.120000 0.000000 
 0.360000 0.120000 0.000000 
 0.380000 0.120000 0.000000 
 0.400000 0.120000 0.000000 
 0.420000 0.120000 0.000000 
 0.440000 0.120000 0.000000 
 0.460000 0.120000 0.000000 
 0.480000 0.120000 0.000000 
 0.500000 0.120000 0.000000 
 0.520000 0.120000 0.000000 
 0.540000 0.120000 0.000000 
 0.560000 0.120000 0.000000 
 0.580000 0.120000 0.000000 
 0.600000 0.120000 0.000000 
[...]
<PointData  Scalars="U"> 
<DataArray  type="Float64"  Name="U"  format="ascii"> 
 0.000000e+00
 0.000000e+00
 0.000000e+00
 0.000000e+00
 0.000000e+00
 0.000000e+00
 0.000000e+00
 0.000000e+00
 0.000000e+00
 0.000000e+00
 0.000000e+00
 0.000000e+00
 0.000000e+00
 0.000000e+00
 0.000000e+00
 0.000000e+00
 0.000000e+00
 0.000000e+00
 0.000000e+00
 0.000000e+00
 0.000000e+00
 0.000000e+00
 0.000000e+00
 0.000000e+00
 0.000000e+00
 0.000000e+00
 0.000000e+00
 0.000000e+00
 0.000000e+00
 0.000000e+00
 0.000000e+00
 0.000000e+00
 0.000000e+00
 0.000000e+00
 0.000000e+00
 0.000000e+00
 0.000000e+00
 0.000000e+00
 0.000000e+00
 0.000000e+00
 0.000000e+00
 0.000000e+00
 0.000000e+00
 0.000000e+00
 0.000000e+00
 0.000000e+00
 0.000000e+00
 0.000000e+00
 0.000000e+00
 0.000000e+00
 0.000000e+00
 0.000000e+00
 -3.945225e-11
 6.012664e-10
 2.612717e-09
 6.631736e-09
 1.313050e-08
 2.245513e-08
 3.531562e-08
 5.400912e-08
 8.486516e-08
 1.433973e-07
 2.631188e-07
 2.462390e-07
 1.738987e-05
 -3.496238e-07
 -2.595430e-07
 -1.005230e-07
 1.857563e-08
 3.333669e-08
 -2.568511e-08
 -1.512748e-07
 -2.097156e-07
 2.761449e-08
 2.335186e-07
 1.711618e-07
 9.818308e-08
 9.080557e-08
 1.392894e-07
 2.603542e-07
 2.457224e-07
 1.737533e-05
 -4.449074e-07
 -4.481935e-07
 -3.026454e-07
 -1.235790e-06
 -9.186933e-08
 9.329397e-07
 5.531651e-07
 3.132501e-07
 1.739186e-05
 -2.615703e-07
 -1.075291e-07
 -2.055388e-08
 2.060174e-09
 3.347696e-09
 1.452146e-09
 -4.248913e-11
 -7.762842e-10
 -8.746522e-10
 -5.064999e-10
 0.000000e+00
 0.000000e+00
 -7.547894e-10
 -1.749532e-10
 3.186870e-09
 1.074981e-08
 2.347573e-08
 4.160978e-08
 6.540330e-08
 9.723250e-08
 1.451259e-07
 2.299416e-07
 4.111180e-07
 9.960832e-07
 -8.264352e-08
 -1.621147e-06
 -6.132359e-07
 -1.495149e-07
 1.647040e-07
 1.309569e-07
 6.640167e-09
 -1.994673e-07
 -1.292664e-06
 3.785288e-09
 9.012675e-07
 2.664110e-07
 1.295182e-07
 1.313082e-07
 2.114706e-07
 4.039574e-07
 1.006404e-06
 -5.785648e-08
 -1.638336e-06
 -1.662154e-06
 -1.867050e-07
 5.919987e-07
 1.634764e-05
 5.810515e-08
 1.066881e-06
 9.195806e-07
 -2.603070e-07
 -1.414511e-06
 -1.170497e-07
 2.729166e-08
 1.868100e-08
 8.012568e-09
 2.173370e-09
 -8.839541e-10
 -2.190784e-09
 -2.210028e-09
 -1.331013e-09
 0.000000e+00
 0.000000e+00
 -2.778041e-09
 -3.727268e-09
 -5.186045e-10
 9.555795e-09
 2.837106e-08
 5.542738e-08
 8.833235e-08
 1.262132e-07
 1.731309e-07
 2.382172e-07
 3.262833e-07
 3.327995e-07
 -2.099826e-08
 -5.241999e-07
 -1.586801e-06
 -1.556817e-07
 8.230834e-07
 2.245448e-07
 8.626034e-08
 5.793740e-08
 1.057300e-08
 1.745841e-05
 -3.843570e-09
 3.534611e-08
 5.118762e-08
 1.046909e-07
 1.915633e-07
 3.090876e-07
 3.533081e-07
 6.944910e-08
 -2.293009e-07
 -1.864282e-07
 1.757242e-05
 8.378373e-07
 -5.654463e-08
 1.607780e-05
 -2.770330e-07
 -1.683129e-07
 -1.415758e-06
 -3.475305e-07
 6.203655e-07
 1.195266e-07
 2.852042e-08
 7.760235e-09
 3.694106e-10
 -3.398716e-09
 -4.889876e-09
 -4.459259e-09
 -2.605058e-09
 0.000000e+00
 0.000000e+00
 -6.529842e-09
 -1.133827e-08
 -1.120814e-08
 -8.376906e-10
 2.460316e-08
 6.365093e-08
 1.072090e-07
 1.471422e-07
 1.831750e-07
 2.173758e-07
 2.379996e-07
 2.017283e-07
 7.712967e-08
 -4.230567e-08
 -1.135736e-07
 1.737039e-05
 -4.680878e-08
 2.947313e-08
 8.726602e-08
 2.586905e-07
 8.999464e-07
 -1.272922e-08
 -1.331519e-06
 -2.550201e-07
 -6.061817e-08
 4.530487e-08
 1.359918e-07
 2.057328e-07
 2.096385e-07
 1.360110e-07
 1.692956e-07
 8.420593e-07
 1.684207e-07
 -8.560125e-07
 5.866081e-07
 -4.912019e-07
 -1.711798e-06
 -4.187482e-07
 -1.931987e-07
 1.730925e-05
 -1.107546e-07
 -2.481727e-08
 -5.784907e-09
 -8.104110e-10
 -4.232720e-09
 -8.138668e-09
 -9.551846e-09
 -8.162451e-09
 -4.641896e-09
 0.000000e+00
 0.000000e+00
 -1.173882e-08
 -2.344907e-08
 -3.207258e-08
 -2.747376e-08
 5.558116e-09
 6.758413e-08
 1.314625e-07
 1.726030e-07
 1.931169e-07
 2.034042e-07
 2.037998e-07
 1.888221e-07
 1.784773e-07
 2.775650e-07
 8.821903e-07
 -2.970108e-08
 -1.327699e-06
 -2.229787e-07
 6.390779e-09
 1.625581e-07
 2.397530e-07
 1.541988e-09
 -2.812477e-07
 -2.476381e-07
 -1.154504e-07
 -8.850297e-09
 9.393977e-08
 1.687443e-07
 1.819968e-07
 1.372941e-07
 7.150769e-08
 8.448770e-08
 1.501240e-07
 1.314895e-07
 -1.700514e-08
 -4.652401e-07
 -7.562611e-07
 -2.405687e-07
 8.296032e-07
 8.402447e-09
 -1.276977e-06
 -1.734211e-07
 -1.985142e-08
 -1.729209e-09
 -9.300226e-09
 -1.576713e-08
 -1.715103e-08
 -1.404370e-08
 -7.816232e-09
 0.000000e+00
 0.000000e+00
 -1.653640e-08
 -3.737684e-08
 -6.460097e-08
 -8.497108e-08
 -4.897627e-08
 7.037114e-08
 1.846760e-07
 2.197969e-07
 2.109265e-07
 1.975876e-07
 1.884631e-07
 1.845483e-07
 1.986351e-07
 2.569681e-07
 2.877882e-07
 3.711075e-08
 -2.360465e-07
 -1.821350e-07
 -3.477251e-08
 5.349516e-08
 6.540509e-08
 -2.220312e-08
 -1.306184e-07
 -1.687360e-07
 -1.481903e-07
 -6.936880e-08
 7.810890e-08
 2.011475e-07
 2.198798e-07
 1.548186e-07
 -3.026897e-08
 -1.145969e-06
 4.475066e-08
 7.791405e-07
 -6.164266e-08
 -5.368883e-07
 -1.745876e-06
 -3.577827e-07
 8.189211e-07
 1.517913e-07
 -6.823490e-08
 6.693003e-08
 6.855054e-08
 1.120787e-08
 -1.810032e-08
 -2.894582e-08
 -2.931464e-08
 -2.306449e-08
 -1.258882e-08
 0.000000e+00
 0.000000e+00
 -1.687382e-08
 -4.332092e-08
 -9.522221e-08
 -1.992048e-07
 -2.166619e-07
 8.238361e-08
 3.443943e-07
 3.068497e-07
 2.267442e-07
 1.866898e-07
 1.701572e-07
 1.659744e-07
 1.709530e-07
 1.765542e-07
 1.455712e-07
 4.398475e-08
 -5.528251e-08
 -6.688116e-08
 -2.339335e-08
 1.442108e-08
 1.670569e-08
 -2.142221e-08
 -7.889917e-08
 -1.405060e-07
 -2.313113e-07
 -2.273460e-07
 9.055658e-08
 3.645297e-07
 3.314061e-07
 2.495509e-07
 2.056382e-07
 1.126382e-07
 1.747359e-05
 -1.278242e-07
 -3.043294e-07
 -4.549489e-07
 -4.160046e-07
 1.617764e-05
 -1.867954e-07
 -4.809850e-07
 5.758010e-08
 7.840100e-07
 1.342312e-07
 -7.919575e-09
 -4.412800e-08
 -5.192569e-08
 -4.790604e-08
 -3.628677e-08
 -1.948078e-08
 0.000000e+00
 0.000000e+00
 -8.626621e-09
 -2.616386e-08
 -7.410755e-08
 -2.309955e-07
 -1.285008e-06
 4.891381e-08
 9.755777e-07
 3.508558e-07
 1.986496e-07
 1.541811e-07
 1.410772e-07
 1.380088e-07
 1.366428e-07
 1.283082e-07
 1.008161e-07
 5.246358e-08
 7.685199e-09
 -8.058533e-09
 9.881899e-10
 1.380885e-08
 1.433539e-08
 -1.944602e-09
 -3.220139e-08
 -8.610762e-08
 -2.388936e-07
 -1.282269e-06
 6.496091e-08
 1.007275e-06
 4.061059e-07
 3.046160e-07
 4.093855e-07
 1.000742e-06
 2.621334e-08
 -1.385164e-06
 -4.854330e-07
 -1.257614e-06
 7.533191e-07
 7.449857e-07
 1.625553e-05
 -3.593132e-07
 1.722104e-05
 -1.977840e-07
 -1.183163e-07
 -1.010285e-07
 -9.165550e-08
 -8.538928e-08
 -7.396670e-08
 -5.474606e-08
 -2.907568e-08
 0.000000e+00
 0.000000e+00
 6.993554e-09
 1.496500e-08
 2.618574e-08
 5.019293e-08
 3.163165e-08
 1.750158e-05
 5.410990e-08
 9.431212e-08
 9.031037e-08
 9.677436e-08
 1.036469e-07
 1.081288e-07
 1.081258e-07
 1.006163e-07
 8.299557e-08
 5.781301e-08
 3.479113e-08
 2.313269e-08
 2.301438e-08
 2.760582e-08
 3.044831e-08
 3.003012e-08
 2.988551e-08
 3.613374e-08
 6.004157e-08
 4.576645e-08
 1.752404e-05
 9.119852e-08
 1.589777e-07
 2.077404e-07
 3.051671e-07
 3.531302e-07
 9.163081e-08
 -2.035500e-07
 -1.351315e-07
 7.328589e-08
 1.782496e-05
 8.517731e-07
 -1.421462e-07
 -8.315191e-07
 -5.711380e-07
 -1.601464e-06
 -3.840882e-07
 -1.796081e-07
 -1.365876e-07
 -1.251228e-07
 -1.084812e-07
 -7.990845e-08
 -4.210276e-08
 0.000000e+00
 0.000000e+00
 2.177775e-08
 5.357043e-08
 1.179129e-07
 2.914506e-07
 9.386381e-07
 3.498307e-08
 -1.276149e-06
 -2.005082e-07
 -2.424097e-08
 3.969814e-08
 6.865547e-08
 8.250639e-08
 8.704883e-08
 8.394636e-08
 7.431383e-08
 6.095647e-08
 4.861811e-08
 4.146506e-08
 4.051413e-08
 4.410890e-08
 5.075700e-08
 6.207980e-08
 8.583531e-08
 1.444915e-07
 3.146908e-07
 9.605940e-07
 5.828388e-08
 -1.245658e-06
 -1.505790e-07
 6.212602e-08
 1.663489e-07
 1.894375e-07
 1.127484e-07
 4.009987e-08
 1.630643e-07
 8.772461e-07
 1.302704e-07
 -1.100068e-06
 -2.478987e-07
 -4.067152e-07
 -6.084630e-07
 -5.106472e-07
 -2.022446e-07
 -1.324378e-07
 -1.633782e-07
 -1.738385e-07
 -1.562684e-07
 -1.145853e-07
 -5.919681e-08
 0.000000e+00
 0.000000e+00
 2.810484e-08
 6.591478e-08
 1.278426e-07
 2.309880e-07
 2.924243e-07
 5.470872e-08
 -2.202859e-07
 -1.801061e-07
 -5.622917e-08
 1.111552e-08
 4.701714e-08
 6.561653e-08
 7.353957e-08
 7.414249e-08
 6.978051e-08
 6.298933e-08
 5.662499e-08
 5.307660e-08
 5.350458e-08
 5.809576e-08
 6.731998e-08
 8.358031e-08
 1.131312e-07
 1.686101e-07
 2.656913e-07
 3.200335e-07
 7.367589e-08
 -2.085896e-07
 -1.644480e-07
 -1.258621e-08
 9.912734e-08
 1.552616e-07
 1.428678e-07
 9.398245e-08
 3.764979e-08
 1.811009e-08
 -5.480984e-08
 -1.937271e-07
 -1.243745e-07
 -1.912839e-07
 -1.446653e-06
 -3.043779e-07
 5.551337e-07
 -7.128320e-08
 -2.171567e-07
 -2.514674e-07
 -2.295981e-07
 -1.628562e-07
 -7.860484e-08
 0.000000e+00
 0.000000e+00
 2.553841e-08
 5.560254e-08
 9.258470e-08
 1.266276e-07
 1.172429e-07
 2.911445e-08
 -6.383473e-08
 -7.445082e-08
 -3.200136e-08
 1.160905e-08
 4.151673e-08
 5.891227e-08
 6.720798e-08
 6.936308e-08
 6.776109e-08
 6.451727e-08
 6.157659e-08
 6.051841e-08
 6.237105e-08
 6.776913e-08
 7.746261e-08
 9.285896e-08
 1.159916e-07
 1.471249e-07
 1.739283e-07
 1.525639e-07
 4.366691e-08
 -8.089387e-08
 -1.205327e-07
 -5.538405e-08
 8.735354e-08
 2.008562e-07
 2.096259e-07
 1.404887e-07
 -5.021407e-08
 -1.204610e-06
 -1.694900e-07
 -4.760849e-07
 1.005939e-07
 7.913085e-07
 9.161141e-09
 1.723951e-05
 -3.020479e-07
 -3.072702e-07
 -3.510697e-07
 -3.807929e-07
 -3.530880e-07
 -2.280248e-07
 -8.531867e-08
 0.000000e+00
 0.000000e+00
 1.827342e-08
 3.693020e-08
 5.395763e-08
 6.173941e-08
 4.810798e-08
 1.232394e-08
 -1.972059e-08
 -2.224960e-08
 -1.359209e-11
 2.755107e-08
 4.867870e-08
 6.118290e-08
 6.691349e-08
 6.830412e-08
 6.736534e-08
 6.568101e-08
 6.454245e-08
 6.497240e-08
 6.770964e-08
 7.326908e-08
 8.205440e-08
 9.429729e-08
 1.093463e-07
 1.234988e-07
 1.262129e-07
 1.000527e-07
 3.497155e-08
 -5.942820e-08
 -1.825423e-07
 -1.969776e-07
 1.111541e-07
 3.783589e-07
 3.415754e-07
 2.617625e-07
 2.270539e-07
 1.528670e-07
 1.755948e-05
 3.703912e-09
 1.746701e-05
 9.506794e-08
 7.093610e-07
 -2.569521e-07
 -1.610788e-06
 -5.813514e-07
 -4.829168e-07
 -5.647453e-07
 -6.047045e-07
 -3.102099e-07
 -1.697170e-09
 0.000000e+00
 0.000000e+00
 1.027312e-08
 1.889893e-08
 2.327773e-08
 1.989530e-08
 7.328784e-09
 -8.017867e-09
 -1.219404e-08
 2.760179e-09
 2.873748e-08
 5.165944e-08
 6.503409e-08
 7.025420e-08
 7.086442e-08
 6.950258e-08
 6.767088e-08
 6.625546e-08
 6.588962e-08
 6.707938e-08
 7.021128e-08
 7.553072e-08
 8.308110e-08
 9.248879e-08
 1.024167e-07
 1.096358e-07
 1.083605e-07
 9.157316e-08
 5.381163e-08
 -1.622413e-08
 -1.867546e-07
 -1.243572e-06
 9.509462e-08
 1.032530e-06
 4.306398e-07
 3.360848e-07
 4.643867e-07
 1.120573e-06
 3.359901e-07
 -3.758367e-07
 -2.246490e-07
 -1.331316e-06
 -1.958841e-07
 -2.845200e-07
 -5.311880e-07
 -5.106522e-07
 -4.628812e-07
 -6.194310e-07
 -1.776485e-06
 -5.143954e-07
 5.726478e-07
 0.000000e+00
 0.000000e+00
 3.741751e-09
 4.875844e-09
 5.781379e-10
 -1.131080e-08
 -2.887814e-08
 -4.060594e-08
 -2.727759e-08
 1.567433e-08
 6.234265e-08
 8.677899e-08
 8.977448e-08
 8.370152e-08
 7.658567e-08
 7.107607e-08
 6.752519e-08
 6.576213e-08
 6.566160e-08
 6.722129e-08
 7.049561e-08
 7.550136e-08
 8.210342e-08
 8.984497e-08
 9.771121e-08
 1.039652e-07
 1.064805e-07
 1.040833e-07
 9.856566e-08
 9.597981e-08
 1.100879e-07
 8.767202e-08
 1.756038e-05
 1.242082e-07
 1.909576e-07
 2.438738e-07
 3.594578e-07
 4.565518e-07
 2.929501e-07
 5.133541e-08
 -1.683681e-07
 -3.423944e-07
 -2.962119e-07
 -2.693250e-07
 -3.126973e-07
 -3.081694e-07
 -2.722813e-07
 -2.622328e-07
 -4.300071e-07
 1.594830e-05
 -3.218585e-07
 0.000000e+00
 0.000000e+00
 -2.456637e-10
 -3.677124e-09
 -1.395507e-08
 -3.510514e-08
 -6.882818e-08
 -1.006706e-07
 -7.904834e-08
 2.507250e-08
 1.244006e-07
 1.449955e-07
 1.223194e-07
 9.724453e-08
 8.037697e-08
 7.063616e-08
 6.561084e-08
 6.362980e-08
 6.378314e-08
 6.564264e-08
 6.902482e-08
 7.382452e-08
 7.989283e-08
 8.694348e-08
 9.452102e-08
 1.021645e-07
 1.100381e-07
 1.204470e-07
 1.411915e-07
 1.952522e-07
 3.606209e-07
 1.002897e-06
 9.864638e-08
 -1.206755e-06
 -1.153319e-07
 9.039898e-08
 1.901854e-07
 2.221088e-07
 1.601145e-07
 4.285678e-08
 -7.782273e-08
 -1.622762e-07
 -1.835126e-07
 -1.816614e-07
 -1.755536e-07
 -1.401675e-07
 -5.057299e-08
 1.600509e-07
 8.586241e-07
 -3.253969e-08
 1.617316e-05
 0.000000e+00
 0.000000e+00
 -1.138383e-09
 -5.494094e-09
 -1.744803e-08
 -4.456382e-08
 -1.017232e-07
 -2.145745e-07
 -2.433059e-07
 4.326596e-08
 2.925208e-07
 2.425660e-07
 1.510132e-07
 1.012299e-07
 7.700609e-08
 6.564201e-08
 6.078270e-08
 5.944122e-08
 6.023722e-08
 6.255315e-08
 6.612866e-08
 7.085494e-08
 7.666694e-08
 8.350180e-08
 9.134559e-08
 1.004493e-07
 1.118579e-07
 1.284649e-07
 1.569250e-07
 2.105415e-07
 3.061316e-07
 3.607495e-07
 1.172521e-07
 -1.614616e-07
 -1.212684e-07
 6.743349e-09
 7.694961e-08
 1.008787e-07
 8.189643e-08
 3.427512e-08
 -2.095188e-08
 -6.471332e-08
 -8.622010e-08
 -8.833988e-08
 -7.117504e-08
 -2.243216e-08
 7.971636e-08
 2.721005e-07
 5.519149e-07
 1.049969e-06
 9.561184e-08
 0.000000e+00
 0.000000e+00
 1.012935e-09
 -1.832427e-10
 -6.906961e-09
 -2.631529e-08
 -7.921962e-08
 -2.436281e-07
 -1.307083e-06
 1.620155e-08
 9.317613e-07
 2.961708e-07
 1.340371e-07
 8.124352e-08
 6.183569e-08
 5.465918e-08
 5.268029e-08
 5.323131e-08
 5.522593e-08
 5.822692e-08
 6.208740e-08
 6.679782e-08
 7.242196e-08
 7.908692e-08
 8.702848e-08
 9.671446e-08
 1.090687e-07
 1.257485e-07
 1.490869e-07
 1.799120e-07
 2.070481e-07
 1.887300e-07
 8.863260e-08
 -1.943171e-08
 -4.703235e-08
 -2.125099e-08
 7.729085e-09
 2.558921e-08
 3.336914e-08
 3.282395e-08
 2.334048e-08
 7.239762e-09
 -7.437964e-09
 -1.168917e-08
 2.689328e-09
 4.456238e-08
 1.230493e-07
 2.413027e-07
 3.789706e-07
 4.308285e-07
 2.386952e-07
 0.000000e+00
 0.000000e+00
 5.221676e-09
 1.015259e-08
 1.464202e-08
 1.898425e-08
 2.504812e-08
 4.223573e-08
 1.531791e-08
 1.747573e-05
 1.811755e-08
 4.828344e-08
 3.517282e-08
 3.426205e-08
 3.621918e-08
 3.906787e-08
 4.227221e-08
 4.567315e-08
 4.925180e-08
 5.306195e-08
 5.720708e-08
 6.183609e-08
 6.715215e-08
 7.343107e-08
 8.104037e-08
 9.043810e-08
 1.021069e-07
 1.163106e-07
 1.323555e-07
 1.466573e-07
 1.494936e-07
 1.259443e-07
 7.222529e-08
 1.231696e-08
 -2.666577e-08
 -4.377819e-08
 -4.868280e-08
 -3.968228e-08
 -7.557785e-09
 4.090415e-08
 7.553660e-08
 7.774984e-08
 6.067450e-08
 4.652412e-08
 4.919485e-08
 7.446241e-08
 1.224360e-07
 1.847851e-07
 2.363644e-07
 2.309150e-07
 1.384813e-07
 0.000000e+00
 0.000000e+00
 9.741275e-09
 2.098959e-08
 3.652427e-08
 6.333281e-08
 1.224566e-07
 2.897452e-07
 9.292952e-07
 1.664426e-08
 -1.304410e-06
 -2.388100e-07
 -7.165771e-08
 -1.484760e-08
 9.874161e-09
 2.316934e-08
 3.168767e-08
 3.794843e-08
 4.305401e-08
 4.756921e-08
 5.185162e-08
 5.619936e-08
 6.093524e-08
 6.646151e-08
 7.327201e-08
 8.186584e-08
 9.248262e-08
 1.046091e-07
 1.162930e-07
 1.234500e-07
 1.198725e-07
 9.969133e-08
 6.277239e-08
 1.685102e-08
 -2.994867e-08
 -7.571470e-08
 -1.170548e-07
 -1.311347e-07
 -7.054450e-08
 6.537978e-08
 1.671878e-07
 1.685597e-07
 1.238643e-07
 8.657852e-08
 7.233184e-08
 8.041447e-08
 1.047468e-07
 1.342661e-07
 1.514594e-07
 1.363703e-07
 8.099666e-08
 0.000000e+00
 0.000000e+00
 1.293086e-08
 2.810441e-08
 4.890709e-08
 8.175817e-08
 1.391659e-07
 2.369857e-07
 2.914789e-07
 4.486971e-08
 -2.406542e-07
 -2.116061e-07
 -9.794277e-08
 -3.838344e-08
 -6.781417e-09
 1.149874e-08
 2.316307e-08
 3.130149e-08
 3.741626e-08
 4.230082e-08
 4.643554e-08
 5.018871e-08
 5.394578e-08
 5.821367e-08
 6.368388e-08
 7.115095e-08
 8.111088e-08
 9.298212e-08
 1.043349e-07
 1.109111e-07
 1.078817e-07
 9.187068e-08
 6.238634e-08
 2.069995e-08
 -3.428809e-08
 -1.089419e-07
 -2.057629e-07
 -3.035135e-07
 -2.375109e-07
 1.346961e-07
 3.881539e-07
 2.998855e-07
 1.720790e-07
 1.015600e-07
 7.250113e-08
 6.933444e-08
 8.065532e-08
 9.526700e-08
 1.008320e-07
 8.689069e-08
 5.068031e-08
 0.000000e+00
 0.000000e+00
 1.404838e-08
 3.005133e-08
 5.025872e-08
 7.718583e-08
 1.115574e-07
 1.420222e-07
 1.267559e-07
 2.954038e-08
 -7.561773e-08
 -1.000703e-07
 -7.052678e-08
 -3.643139e-08
 -1.134578e-08
 5.906585e-09
 1.792839e-08
 2.657187e-08
 3.296128e-08
 3.776527e-08
 4.140432e-08
 4.419513e-08
 4.647979e-08
 4.878994e-08
 5.206194e-08
 5.776600e-08
 6.749613e-08
 8.152939e-08
 9.703354e-08
 1.082316e-07
 1.094293e-07
 9.792687e-08
 7.379452e-08
 3.670740e-08
 -1.924583e-08
 -1.138595e-07
 -2.940889e-07
 -5.001516e-07
 -1.290341e-06
 2.678328e-07
 1.118863e-06
 3.787750e-07
 1.575239e-07
 7.633141e-08
 4.751966e-08
 4.371446e-08
 5.294899e-08
 6.552235e-08
 7.108168e-08
 6.168640e-08
 3.600003e-08
 0.000000e+00
 0.000000e+00
 1.326485e-08
 2.787514e-08
 4.477716e-08
 6.375104e-08
 8.156515e-08
 8.889694e-08
 7.145075e-08
 2.639634e-08
 -2.108468e-08
 -4.293911e-08
 -3.896617e-08
 -2.396435e-08
 -8.056145e-09
 5.382973e-09
 1.594888e-08
 2.402305e-08
 3.005224e-08
 3.437776e-08
 3.722455e-08
 3.873722e-08
 3.905644e-08
 3.850709e-08
 3.806278e-08
 4.015671e-08
 4.899949e-08
 6.800985e-08
 9.405599e-08
 1.161602e-07
 1.242225e-07
 1.165927e-07
 9.729822e-08
 6.945175e-08
 2.994992e-08
 -4.016507e-08
 -2.173226e-07
 -1.280771e-06
 -9.109686e-10
 1.835907e-05
 2.511078e-07
 1.068034e-07
 3.185539e-08
 6.066770e-09
 -4.888164e-10
 5.199222e-09
 2.161232e-08
 4.316143e-08
 5.751088e-08
 5.410788e-08
 3.238378e-08
 0.000000e+00
 0.000000e+00
 1.107750e-08
 2.324148e-08
 3.677896e-08
 5.040909e-08
 6.067683e-08
 6.215695e-08
 5.016850e-08
 2.642488e-08
 1.294751e-09
 -1.412561e-08
 -1.694539e-08
 -1.119348e-08
 -1.880273e-09
 7.825091e-09
 1.645949e-08
 2.349834e-08
 2.882656e-08
 3.245478e-08
 3.437569e-08
 3.449591e-08
 3.259654e-08
 2.836529e-08
 2.190562e-08
 1.580893e-08
 1.912171e-08
 4.574781e-08
 9.521485e-08
 1.399373e-07
 1.557365e-07
 1.466807e-07
 1.283798e-07
 1.117745e-07
 1.031863e-07
 1.114676e-07
 1.659054e-07
 2.859053e-07
 1.836635e-05
 -2.236152e-08
 -1.329501e-06
 -2.896942e-07
 -1.323267e-07
 -8.057433e-08
 -5.987612e-08
 -4.488597e-08
 -1.641607e-08
 2.832133e-08
 6.374648e-08
 6.629756e-08
 3.981500e-08
 0.000000e+00
 0.000000e+00
 7.669819e-09
 1.697029e-08
 2.831016e-08
 4.003126e-08
 4.857703e-08
 5.002445e-08
 4.247910e-08
 2.800556e-08
 1.219188e-08
 8.063845e-10
 -3.519758e-09
 -1.590623e-09
 4.195032e-09
 1.148454e-08
 1.862712e-08
 2.470159e-08
 2.929578e-08
 3.222420e-08
 3.330614e-08
 3.224907e-08
 2.849701e-08
 2.077881e-08
 6.537428e-09
 -1.642804e-08
 -3.644504e-08
 -5.748994e-09
 1.019560e-07
 1.990875e-07
 2.137157e-07
 1.846645e-07
 1.568837e-07
 1.463385e-07
 1.619326e-07
 2.276017e-07
 4.286780e-07
 1.143197e-06
 2.622748e-07
 -1.327478e-06
 -5.667893e-07
 -3.841347e-07
 -2.200893e-07
 -1.412587e-07
 -1.131850e-07
 -1.109931e-07
 -7.731358e-08
 2.337470e-08
 1.091508e-07
 1.091631e-07
 5.957593e-08
 0.000000e+00
 0.000000e+00
 2.419497e-09
 8.285732e-09
 1.910115e-08
 3.274020e-08
 4.392228e-08
 4.761513e-08
 4.240852e-08
 3.095686e-08
 1.802852e-08
 8.040587e-09
 3.401421e-09
 4.196154e-09
 8.899991e-09
 1.541833e-08
 2.194928e-08
 2.742099e-08
 3.142763e-08
 3.382149e-08
 3.434138e-08
 3.258926e-08
 2.811447e-08
 1.953419e-08
 1.223945e-09
 -4.288120e-08
 -1.428925e-07
 -1.637849e-07
 1.236805e-07
 3.682843e-07
 3.115447e-07
 2.152784e-07
 1.673952e-07
 1.568287e-07
 1.781317e-07
 2.375487e-07
 3.463031e-07
 4.066097e-07
 1.181778e-07
 -2.923075e-07
 -3.945216e-07
 -3.222134e-07
 -2.311984e-07
 -1.536309e-07
 -1.318543e-07
 -2.086805e-07
 -2.354558e-07
 3.693471e-08
 2.672462e-07
 1.973412e-07
 8.299186e-08
 0.000000e+00
 0.000000e+00
 -6.596326e-09
 -6.017244e-09
 6.436227e-09
 2.794936e-08
 4.746430e-08
 5.485396e-08
 4.894538e-08
 3.530062e-08
 2.054803e-08
 9.508369e-09
 4.612826e-09
 5.985048e-09
 1.185163e-08
 1.947627e-08
 2.645254e-08