<VTKFile type="UnstructuredGrid"  version="0.1"   >
<UnstructuredGrid>  
<Piece  NumberOfPoints="     2601"  NumberOfCells="     5000">  
<Points>  
<DataArray  type="Float64"  NumberOfComponents="3"  format="ascii">  
 0.000000 0.000000 0.000000 
 0.020000 0.000000 0.000000 
 0.040000 0.000000 0.000000 
 0.060000 0.000000 0.000000 
 0.080000 0.000000 0.000000 
 0.100000 0.000000 0.000000 
 0.120000 0.000000 0.000000 
 0.140000 0.000000 0.000000 
 0.160000 0.000000 0.000000 
 0.180000 0.000000 0.000000 
 0.200000 0.000000 0.000000 
 0.220000 0.000000 0.000000 
 0.240000 0.000000 0.000000 
 0.260000 0.000000 0.000000 
 0.280000 0.000000 0.000000 
 0.300000 0.000000 0.000000 
 0.320000 0.000000 0.000000 
 0.340000 0.000000 0.000000 
 0.360000 0.000000 0.000000 
 0.380000 0.000000 0.000000 
 0.400000 0.000000 0.000000 
 0.420000 0.000000 0.000000 
 0.440000 0.000000 0.000000 
 0.460000 0.000000 0.000000 
 0.480000 0.000000 0.000000 
 0.500000 0.000000 0.000000 
 0.520000 0.000000 0.000000 
 0.540000 0.000000 0.000000 
 0.560000 0.000000 0.000000 
 0.580000 0.000000 0.000000 
 0.600000 0.000000 0.000000 
 0.620000 0.000000 0.000000 
 0.640000 0.000000 0.000000 
 0.660000 0.000000 0.000000 
 0.680000 0.000000 0.000000 
 0.700000 0.000000 0.000000 
 0.720000 0.000000 0.000000 
 0.740000 0.000000 0.000000 
 0.760000 0.000000 0.000000 
 0.780000 0.000000 0.000000 
 0.800000 0.000000 0.000000 
 0.820000 0.000000 0.000000 
 0.840000 0.000000 0.000000 
 0.860000 0.000000 0.000000 
 0.880000 0.000000 0.000000 
 0.900000 0.000000 0.000000 
 0.920000 0.000000 0.000000 
 0.940000 0.000000 0.000000 
 0.960000 0.000000 0.000000 
 0.980000 0.000000 0.000000 
 1.000000 0.000000 0.000000 
 0.000000 0.020000 0.000000 
 0.020000 0.020000 0.000000 
 0.040000 0.020000 0.000000 
 0.060000 0.020000 0.000000 
 0.080000 0.020000 0.000000 
 0.100000 0.020000 0.000000 
 0.120000 0.020000 0.000000 
 0.140000 0.020000 0.000000 
 0.160000 0.020000 0.000000 
 0.180000 0.020000 0.000000 
 0.200000 0.020000 0.000000 
 0.220000 0.020000 0.000000 
 0.240000 0.020000 0.000000 
 0.260000 0.020000 0.000000 
 0.280000 0.020000 0.000000 
 0.300000 0.020000 0.000000 
 0.320000 0.020000 0.000000 
 0.340000 0.020000 0.000000 
 0.360000 0.020000 0.000000 
 0.380000 0.020000 0.000000 
 0.400000 0.020000 0.000000 
 0.420000 0.020000 0.000000 
 0.440000 0.020000 0.000000 
 0.460000 0.020000 0.000000 
 0.480000 0.020000 0.000000 
 0.500000 0.020000 0.000000 
 0.520000 0.020000 0.000000 
 0.540000 0.020000 0.000000 
 0.560000 0.020000 0.000000 
 0.580000 0.020000 0.000000 
 0.600000 0.020000 0.000000 
 0.620000 0.020000 0.000000 
 0.640000 0.020000 0.000000 
 0.660000 0.020000 0.000000 
 0.680000 0.020000 0.000000 
 0.700000 0.020000 0.000000 
 0.720000 0.020000 0.000000 
 0.740000 0.020000 0.000000 
 0.760000 0.020000 0.000000 
 0.780000 0.020000 0.000000 
 0.800000 0.020000 0.000000 
 0.820000 0.020000 0.000000 
 0.840000 0.020000 0.000000 
 0.860000 0.020000 0.000000 
 0.880000 0.020000 0.000000 
 0.900000 0.020000 0.000000 
 0.920000 0.020000 0.000000 
 0.940000 0.020000 0.000000 
 0.960000 0.020000 0.000000 
 0.980000 0.020000 0.000000 
 1.000000 0.020000 0.000000 
 0.000000 0.040000 0.000000 
 0.020000 0.040000 0.000000 
 0.040000 0.040000 0.000000 
 0.060000 0.040000 0.000000 
 0.080000 0.040000 0.000000 
 0.100000 0.040000 0.000000 
 0.120000 0.040000 0.000000 
 0.140000 0.040000 0.000000 
 0.160000 0.040000 0.000000 
 0.180000 0.040000 0.000000 
 0.200000 0.040000 0.000000 
 0.220000 0.040000 0.000000 
 0.240000 0.040000 0.000000 
 0.260000 0.040000 0.000000 
 0.280000 0.040000 0.000000 
 0.300000 0.040000 0.000000 
 0.320000 0.040000 0.000000 
 0.340000 0.040000 0.000000 
 0.360000 0.040000 0.000000 
 0.380000 0.040000 0.000000 
 0.400000 0.040000 0.000000 
 0.420000 0.040000 0.000000 
 0.440000 0.040000 0.000000 
 0.460000 0.040000 0.000000 
 0.480000 0.040000 0.000000 
 0.500000 0.040000 0.000000 
 0.520000 0.040000 0.000000 
 0.540000 0.040000 0.000000 
 0.560000 0.040000 0.000000 
 0.580000 0.040000 0.000000 
 0.600000 0.040000 0.000000 
 0.620000 0.040000 0.000000 
 0.640000 0.040000 0.000000 
 0.660000 0.040000 0.000000 
 0.680000 0.040000 0.000000 
 0.700000 0.040000 0.000000 
 0.720000 0.040000 0.000000 
 0.740000 0.040000 0.000000 
 0.760000 0.040000 0.000000 
 0.780000 0.040000 0.000000 
 0.800000 0.040000 0.000000 
 0.820000 0.040000 0.000000 
 0.840000 0.040000 0.000000 
 0.860000 0.040000 0.000000 
 0.880000 0.040000 0.000000 
 0.900000 0.040000 0.000000 
 0.920000 0.040000 0.000000 
 0.940000 0.040000 0.000000 
 0.960000 0.040000 0.000000 
 0.980000 0.040000 0.000000 
 1.000000 0.040000 0.000000 
 0.000000 0.060000 0.000000 
 0.020000 0.060000 0.000000 
 0.040000 0.060000 0.000000 
 0.060000 0.060000 0.000000 
 0.080000 0.060000 0.000000 
 0.100000 0.060000 0.000000 
 0.120000 0.060000 0.000000 
 0.140000 0.060000 0.000000 
 0.160000 0.060000 0.000000 
 0.180000 0.060000 0.000000 
 0.200000 0.060000 0.000000 
 0.220000 0.060000 0.000000 
 0.240000 0.060000 0.000000 
 0.260000 0.060000 0.000000 
 0.280000 0.060000 0.000000 
 0.300000 0.060000 0.000000 
 0.320000 0.060000 0.000000 
 0.340000 0.060000 0.000000 
 0.360000 0.060000 0.000000 
 0.380000 0.060000 0.000000 
 0.400000 0.060000 0.000000 
 0.420000 0.060000 0.000000 
 0.440000 0.060000 0.000000 
 0.460000 0.060000 0.000000 
 0.480000 0.060000 0.000000 
 0.500000 0.060000 0.000000 
 0.520000 0.060000 0.000000 
 0.540000 0.060000 0.000000 
 0.560000 0.060000 0.000000 
 0.580000 0.060000 0.000000 
 0.600000 0.060000 0.000000 
 0.620000 0.060000 0.000000 
 0.640000 0.060000 0.000000 
 0.660000 0.060000 0.000000 
 0.680000 0.060000 0.000000 
 0.700000 0.060000 0.000000 
 0.720000 0.060000 0.000000 
 0.740000 0.060000 0.000000 
 0.760000 0.060000 0.000000 
 0.780000 0.060000 0.000000 
 0.800000 0.060000 0.000000 
 0.820000 0.060000 0.000000 
 0.840000 0.060000 0.000000 
 0.860000 0.060000 0.000000 
 0.880000 0.060000 0.000000 
 0.900000 0.060000 0.000000 
 0.920000 0.060000 0.000000 
 0.940000 0.060000 0.000000 
 0.960000 0.060000 0.000000 
 0.980000 0.060000 0.000000 
 1.000000 0.060000 0.000000 
 0.000000 0.080000 0.000000 
 0.020000 0.080000 0.000000 
 0.040000 0.080000 0.000000 
 0.060000 0.080000 0.000000 
 0.080000 0.080000 0.000000 
 0.100000 0.080000 0.000000 
 0.120000 0.080000 0.000000 
 0.140000 0.080000 0.000000 
 0.160000 0.080000 0.000000 
 0.180000 0.080000 0.000000 
 0.200000 0.080000 0.000000 
 0.220000 0.080000 0.000000 
 0.240000 0.080000 0.000000 
 0.260000 0.080000 0.000000 
 0.280000 0.080000 0.000000 
 0.300000 0.080000 0.000000 
 0.320000 0.080000 0.000000 
 0.340000 0.080000 0.000000 
 0.360000 0.080000 0.000000 
 0.380000 0.080000 0.000000 
 0.400000 0.080000 0.000000 
 0.420000 0.080000 0.000000 
 0.440000 0.080000 0.000000 
 0.460000 0.080000 0.000000 
 0.480000 0.080000 0.000000 
 0.500000 0.080000 0.000000 
 0.520000 0.080000 0.000000 
 0.540000 0.080000 0.000000 
 0.560000 0.080000 0.000000 
 0.580000 0.080000 0.000000 
 0.600000 0.080000 0.000000 
 0.620000 0.080000 0.000000 
 0.640000 0.080000 0.000000 
 0.660000 0.080000 0.000000 
 0.680000 0.080000 0.000000 
 0.700000 0.080000 0.000000 
 0.720000 0.080000 0.000000 
 0.740000 0.080000 0.000000 
 0.760000 0.080000 0.000000 
 0.780000 0.080000 0.000000 
 0.800000 0.080000 0.000000 
 0.820000 0.080000 0.000000 
 0.840000 0.080000 0.000000 
 0.860000 0.080000 0.000000 
 0.880000 0.080000 0.000000 
 0.900000 0.080000 0.000000 
 0.920000 0.080000 0.000000 
 0.940000 0.080000 0.000000 
 0.960000 0.080000 0.000000 
 0.980000 0.080000 0.000000 
 1.000000 0.080000 0.000000 
 0.000000 0.100000 0.000000 
 0.020000 0.100000 0.000000 
 0.040000 0.100000 0.000000 
 0.060000 0.100000 0.000000 
 0.080000 0.100000 0.000000 
 0.100000 0.100000 0.000000 
 0.120000 0.100000 0.000000 
 0.140000 0.100000 0.000000 
 0.160000 0.100000 0.000000 
 0.180000 0.100000 0.000000 
 0.200000 0.100000 0.000000 
 0.220000 0.100000 0.000000 
 0.240000 0.100000 0.000000 
 0.260000 0.100000 0.000000 
 0.280000 0.100000 0.000000 
 0.300000 0.100000 0.000000 
 0.320000 0.100000 0.000000 
 0.340000 0.100000 0.000000 
 0.360000 0.100000 0.000000 
 0.380000 0.100000 0.000000 
 0.400000 0.100000 0.000000 
 0.420000 0.100000 0.000000 
 0.440000 0.100000 0.000000 
 0.460000 0.100000 0.000000 
 0.480000 0.100000 0.000000 
 0.500000 0.100000 0.000000 
 0.520000 0.100000 0.000000 
 0.540000 0.100000 0.000000 
 0.560000 0.100000 0.000000 
 0.580000 0.100000 0.000000 
 0.600000 0.100000 0.000000 
 0.620000 0.100000 0.000000 
 0.640000 0.100000 0.000000 
 0.660000 0.100000 0.000000 
 0.680000 0.100000 0.000000 
 0.700000 0.100000 0.000000 
 0.720000 0.100000 0.000000 
 0.740000 0.100000 0.000000 
 0.760000 0.100000 0.000000 
 0.780000 0.100000 0.000000 
 0.800000 0.100000 0.000000 
 0.820000 0.100000 0.000000 
 0.840000 0.100000 0.000000 
 0.860000 0.100000 0.000000 
 0.880000 0.100000 0.000000 
 0.900000 0.100000 0.000000 
 0.920000 0.100000 0.000000 
 0.940000 0.100000 0.000000 
 0.960000 0.100000 0.000000 
 0.980000 0.100000 0.000000 
 1.000000 0.100000 0.000000 
 0.000000 0.120000 0.000000 
 0.020000 0.120000 0.000000 
 0.040000 0.120000 0.000000 
 0.060000 0.120000 0.000000 
 0.080000 0.120000 0.000000 
 0.100000 0.120000 0.000000 
 0.120000 0.120000 0.000000 
 0.140000 0.120000 0.000000 
 0.160000 0.120000 0.000000 
 0.180000 0.120000 0.000000 
 0.200000 0.120000 0.000000 
 0.220000 0.120000 0.000000 
 0.240000 0.120000 0.000000 
 0.260000 0.120000 0.000000 
 0.280000 0.120000 0.000000 
 0.300000 0.120000 0.000000 
 0.320000 0.120000 0.000000 
 0.340000 0.120000 0.000000 
 0.360000 0.120000 0.000000 
 0.380000 0.120000 0.000000 
 0.400000 0.120000 0.000000 
 0.420000 0.120000 0.000000 
 0.440000 0.120000 0.000000 
 0.460000 0.120000 0.000000 
 0.480000 0.120000 0.000000 
 0.500000 0.120000 0.000000 
 0.520000 0.120000 0.000000 
 0.540000 0.120000 0.000000 
 0.560000 0.120000 0.000000 
 0.580000 0.120000 0.000000 
 0.600000 0.120000 0.000000 
[...]
<PointData  Scalars="U"> 
<DataArray  type="Float64"  Name="U"  format="ascii"> 
 0.000000e+00
 0.000000e+00
 0.000000e+00
 0.000000e+00
 0.000000e+00
 0.000000e+00
 0.000000e+00
 0.000000e+00
 0.000000e+00
 0.000000e+00
 0.000000e+00
 0.000000e+00
 0.000000e+00
 0.000000e+00
 0.000000e+00
 0.000000e+00
 0.000000e+00
 0.000000e+00
 0.000000e+00
 0.000000e+00
 0.000000e+00
 0.000000e+00
 0.000000e+00
 0.000000e+00
 0.000000e+00
 0.000000e+00
 0.000000e+00
 0.000000e+00
 0.000000e+00
 0.000000e+00
 0.000000e+00
 0.000000e+00
 0.000000e+00
 0.000000e+00
 0.000000e+00
 0.000000e+00
 0.000000e+00
 0.000000e+00
 0.000000e+00
 0.000000e+00
 0.000000e+00
 0.000000e+00
 0.000000e+00
 0.000000e+00
 0.000000e+00
 0.000000e+00
 0.000000e+00
 0.000000e+00
 0.000000e+00
 0.000000e+00
 0.000000e+00
 0.000000e+00
 1.603353e-09
 3.178004e-09
 4.618612e-09
 5.589621e-09
 5.134679e-09
 6.316890e-10
 -1.497502e-08
 -5.971642e-08
 -1.700078e-07
 -2.222363e-07
 1.329253e-08
 2.106054e-07
 1.322716e-07
 3.329590e-08
 -1.570074e-08
 -3.675074e-08
 -4.032418e-08
 -2.852169e-08
 -5.975373e-09
 1.617354e-08
 2.782984e-08
 2.717405e-08
 1.831460e-08
 6.332925e-09
 -3.986741e-09
 -7.269797e-09
 1.087097e-09
 1.985789e-08
 3.958215e-08
 4.508776e-08
 -2.119263e-09
 -2.809323e-07
 -2.463380e-06
 -3.317187e-08
 1.594385e-06
 2.767136e-07
 -1.547640e-08
 -1.107420e-07
 -2.196374e-07
 -2.592599e-07
 -8.749186e-09
 2.046792e-07
 1.438038e-07
 6.312257e-08
 3.062889e-08
 1.970789e-08
 1.464589e-08
 1.006922e-08
 4.771168e-09
 0.000000e+00
 0.000000e+00
 3.224446e-09
 6.457251e-09
 9.618778e-09
 1.236938e-08
 1.368295e-08
 1.070715e-08
 -4.516397e-09
 -5.580302e-08
 -2.266689e-07
 -1.309866e-06
 -1.840010e-08
 8.625069e-07
 1.982245e-07
 1.442250e-08
 -5.628019e-08
 -8.949706e-08
 -9.664681e-08
 -6.930947e-08
 -1.135092e-08
 4.459829e-08
 6.901070e-08
 6.256539e-08
 3.963098e-08
 1.117488e-08
 -1.498344e-08
 -2.722846e-08
 -9.900091e-09
 3.821836e-08
 9.150753e-08
 1.276119e-07
 1.499484e-07
 1.735873e-07
 6.572076e-08
 3.488568e-05
 -1.292138e-07
 -1.219584e-07
 -1.643150e-07
 -1.941958e-07
 -3.332870e-07
 -1.385396e-06
 -6.344785e-08
 8.491932e-07
 2.200400e-07
 7.551488e-08
 4.262120e-08
 3.525635e-08
 2.941207e-08
 2.090472e-08
 1.068516e-08
 0.000000e+00
 0.000000e+00
 4.824515e-09
 9.770435e-09
 1.493188e-08
 2.032898e-08
 2.582116e-08
 3.097929e-08
 3.505200e-08
 3.785306e-08
 4.606483e-08
 2.502312e-09
 1.743921e-05
 -4.613249e-08
 -4.516307e-08
 -8.943044e-08
 -1.261971e-07
 -1.648290e-07
 -1.896924e-07
 -1.475424e-07
 -1.395023e-08
 1.114191e-07
 1.430519e-07
 1.132658e-07
 6.578552e-08
 1.448518e-08
 -3.847847e-08
 -7.914187e-08
 -5.801030e-08
 5.228515e-08
 1.667064e-07
 2.244444e-07
 3.041165e-07
 5.975830e-07
 1.837182e-06
 -3.465868e-08
 -2.729373e-06
 -6.414113e-07
 -3.224626e-07
 -1.944886e-07
 -1.150079e-07
 -1.109690e-07
 1.737000e-05
 -7.025438e-08
 -1.858804e-08
 3.558087e-09
 3.708542e-08
 5.209325e-08
 4.742916e-08
 3.342662e-08
 1.687594e-08
 0.000000e+00
 0.000000e+00
 6.299156e-09
 1.285690e-08
 1.998412e-08
 2.814490e-08
 3.822437e-08
 5.233939e-08
 7.651606e-08
 1.304685e-07
 2.886011e-07
 9.140130e-07
 -1.785846e-08
 -1.362812e-06
 -3.262684e-07
 -1.962854e-07
 -1.913927e-07
 -2.448522e-07
 -3.513050e-07
 -3.488965e-07
 -4.150399e-09
 3.011014e-07
 2.756676e-07
 1.753194e-07
 9.411735e-08
 2.065354e-08
 -6.560307e-08
 -1.931966e-07
 -2.246956e-07
 6.781023e-08
 3.298923e-07
 3.079697e-07
 2.919224e-07
 4.175685e-07
 5.142491e-07
 2.857221e-08
 -5.654937e-07
 -5.633032e-07
 -3.541494e-07
 -1.523369e-07
 9.799149e-08
 7.614503e-07
 -1.114765e-07
 -1.400717e-06
 -3.164127e-07
 -7.681015e-08
 5.610471e-08
 9.023838e-08
 7.368972e-08
 4.769716e-08
 2.311746e-08
 0.000000e+00
 0.000000e+00
 7.522824e-09
 1.539571e-08
 2.406112e-08
 3.420807e-08
 4.710176e-08
 6.534215e-08
 9.456542e-08
 1.464452e-07
 2.360265e-07
 2.789301e-07
 1.692088e-08
 -2.884819e-07
 -2.855756e-07
 -2.086461e-07
 -2.058208e-07
 -2.723263e-07
 -4.559228e-07
 -1.483946e-06
 -3.725362e-08
 9.997240e-07
 3.995386e-07
 2.128980e-07
 1.142179e-07
 3.779216e-08
 -5.162062e-08
 -2.346284e-07
 -1.299547e-06
 3.267998e-08
 9.530743e-07
 3.061935e-07
 1.256867e-07
 8.886176e-08
 1.139184e-07
 4.423072e-08
 -1.502601e-07
 -3.539128e-07
 -4.041000e-07
 -1.243650e-07
 9.487958e-08
 3.371176e-08
 -9.122730e-08
 -3.066984e-07
 -3.884784e-07
 -8.315268e-08
 1.933882e-07
 1.739882e-07
 1.033613e-07
 5.938239e-08
 2.781197e-08
 0.000000e+00
 0.000000e+00
 8.410325e-09
 1.717881e-08
 2.674200e-08
 3.772220e-08
 5.109092e-08
 6.836674e-08
 9.151840e-08
 1.208465e-07
 1.446414e-07
 1.207312e-07
 1.245082e-08
 -1.070103e-07
 -1.507214e-07
 -1.489330e-07
 -1.580814e-07
 -2.045599e-07
 -3.011236e-07
 -3.520086e-07
 1.742064e-05
 2.589872e-07
 2.794939e-07
 1.842288e-07
 1.154626e-07
 6.307620e-08
 2.655806e-08
 2.057918e-08
 -3.547826e-10
 1.748854e-05
 4.259092e-08
 1.840906e-08
 -1.610947e-07
 -3.337447e-07
 -1.615570e-07
 2.228339e-07
 2.371585e-07
 -1.412362e-07
 -1.360173e-06
 -1.213905e-07
 6.274875e-07
 -1.129434e-06
 -1.491079e-07
 4.117717e-07
 -1.349036e-06
 -1.492816e-07
 7.976845e-07
 2.251186e-07
 1.038584e-07
 6.049725e-08
 2.951139e-08
 0.000000e+00
 0.000000e+00
 8.951933e-09
 1.819650e-08
 2.806220e-08
 3.894245e-08
 5.128516e-08
 6.542222e-08
 8.088763e-08
 9.449343e-08
 9.705610e-08
 7.431702e-08
 2.326407e-08
 -3.137234e-08
 -6.231628e-08
 -7.058676e-08
 -7.280439e-08
 -8.159582e-08
 -1.041419e-07
 -5.514045e-07
 -1.128565e-07
 -4.123364e-07
 1.135533e-07
 1.310282e-07
 1.017354e-07
 7.450114e-08
 7.993536e-08
 2.056157e-07
 8.607196e-07
 4.141323e-08
 -1.208824e-06
 -1.999226e-07
 -2.861584e-07
 -1.513797e-06
 -1.304662e-06
 8.561820e-07
 1.060292e-06
 2.301517e-07
 -1.022301e-08
 1.741914e-05
 -2.339526e-08
 -6.137654e-08
 1.729487e-05
 -2.583762e-07
 -3.268553e-07
 1.714555e-05
 -1.745567e-07
 5.292805e-09
 5.688397e-08
 5.506048e-08
 3.063703e-08
 0.000000e+00
 0.000000e+00
 9.206967e-09
 1.860466e-08
 2.838038e-08
 3.869293e-08
 4.958566e-08
 6.075647e-08
 7.106535e-08
 7.778535e-08
 7.634126e-08
 6.258678e-08
 3.835435e-08
 1.397418e-08
 8.228441e-10
 3.073994e-09
 2.016345e-08
 5.473313e-08
 1.142175e-07
 3.195619e-08
 1.721971e-05
 -2.358418e-07
 7.139007e-08
 1.187228e-07
 8.125626e-08
 5.968673e-08
 4.901109e-08
 3.262122e-08
 6.167793e-08
 1.059135e-07
 7.229739e-08
 5.182038e-08
 8.009807e-08
 5.254321e-08
 1.745471e-05
 1.742296e-05
 -1.236587e-08
 1.234440e-07
 7.759741e-07
 7.680633e-09
 -1.071165e-06
 6.188945e-07
 -1.784792e-07
 -1.414505e-06
 1.479772e-07
 -6.295708e-07
 -1.564475e-06
 -1.402944e-07
 6.684919e-08
 6.811427e-08
 3.646043e-08
 0.000000e+00
 0.000000e+00
 9.271221e-09
 1.863158e-08
 2.814617e-08
 3.781319e-08
 4.747849e-08
 5.668306e-08
 6.445298e-08
 6.917859e-08
 6.899568e-08
 6.314058e-08
 5.380686e-08
 4.647412e-08
 4.761305e-08
 6.256206e-08
 9.714110e-08
 1.643141e-07
 3.060706e-07
 7.652316e-07
 -1.307632e-06
 -1.409804e-06
 5.475943e-07
 1.094657e-07
 3.901128e-08
 3.350554e-08
 1.995655e-08
 -1.022001e-07
 -1.164606e-06
 8.346810e-08
 9.288860e-07
 3.431369e-07
 4.200645e-07
 1.186132e-06
 8.930387e-07
 -1.356460e-06
 -1.624416e-06
 -4.063092e-07
 -1.399079e-07
 1.918990e-08
 8.791595e-08
 1.020206e-07
 -1.454966e-07
 -4.335652e-07
 -5.561689e-07
 -1.785672e-06
 -6.407087e-07
 5.191757e-07
 1.784571e-07
 1.048110e-07
 4.358296e-08
 0.000000e+00
 0.000000e+00
 9.242830e-09
 1.849426e-08
 2.773612e-08
 3.688651e-08
 4.574518e-08
 5.392551e-08
 6.081124e-08
 6.563936e-08
 6.786041e-08
 6.781882e-08
 6.742307e-08
 7.018890e-08
 8.055025e-08
 1.033869e-07
 1.448444e-07
 2.140915e-07
 3.189122e-07
 3.699286e-07
 5.049903e-08
 1.717878e-05
 -2.692550e-07
 -1.169594e-07
 -4.755306e-08
 1.207782e-08
 6.446708e-08
 1.156106e-07
 9.984462e-08
 1.754925e-05
 9.111163e-08
 1.773504e-07
 3.067459e-07
 4.551244e-07
 2.646642e-07
 -2.660481e-07
 -5.383390e-07
 -5.147870e-07
 -1.395451e-06
 -5.477733e-08
 8.041286e-07
 1.031596e-07
 -1.719650e-07
 -3.228594e-07
 -3.793849e-07
 -6.205312e-07
 1.670370e-05
 -2.480328e-07
 2.464192e-07
 1.403356e-07
 2.453091e-08
 0.000000e+00
 0.000000e+00
 9.201667e-09
 1.835643e-08
 2.739833e-08
 3.622012e-08
 4.464877e-08
 5.243007e-08
 5.925184e-08
 6.485436e-08
 6.926831e-08
 7.314590e-08
 7.802567e-08
 8.633989e-08
 1.011830e-07
 1.261415e-07
 1.654081e-07
 2.237609e-07
 3.058839e-07
 4.410386e-07
 9.581908e-07
 -8.353762e-08
 -1.440927e-06
 -3.418218e-07
 -1.215440e-07
 -2.553190e-09
 1.126672e-07
 3.193406e-07
 9.850518e-07
 8.840179e-08
 -1.215697e-06
 -1.185883e-07
 9.079578e-08
 1.508971e-07
 6.483299e-08
 -1.084097e-07
 -2.002403e-07
 -1.403016e-07
 -7.623730e-08
 1.742790e-05
 -5.705888e-08
 -1.168306e-07
 -2.915829e-07
 -3.638085e-07
 -6.904551e-08
 4.364342e-07
 -2.711685e-06
 -1.545404e-06
 1.184376e-06
 -4.075025e-09
 -8.644802e-08
 0.000000e+00
 0.000000e+00
 9.204338e-09
 1.832469e-08
 2.726953e-08
 3.593237e-08
 4.418763e-08
 5.189899e-08
 5.895680e-08
 6.536307e-08
 7.136850e-08
 7.762816e-08
 8.530227e-08
 9.603294e-08
 1.118001e-07
 1.347242e-07
 1.668260e-07
 2.096672e-07
 2.644321e-07
 3.314158e-07
 3.252525e-07
 1.735330e-08
 -2.974842e-07
 -2.626522e-07
 -1.204786e-07
 -1.372062e-08
 9.457929e-08
 2.360410e-07
 3.304384e-07
 1.147029e-07
 -1.532463e-07
 -1.192794e-07
 -1.572528e-08
 9.402703e-09
 -1.836629e-08
 -5.696086e-08
 -4.248689e-08
 1.511377e-07
 8.974193e-07
 6.874219e-08
 -1.270743e-06
 -3.027957e-07
 -3.382544e-07
 -1.345728e-06
 6.362989e-08
 1.047392e-06
 8.955097e-08
 3.451700e-05
 -5.810534e-07
 -1.518668e-06
 -3.164463e-07
 0.000000e+00
 0.000000e+00
 9.289751e-09
 1.846591e-08
 2.741923e-08
 3.604962e-08
 4.427344e-08
 5.203847e-08
 5.935398e-08
 6.634154e-08
 7.330249e-08
 8.078008e-08
 8.957980e-08
 1.007132e-07
 1.152485e-07
 1.340536e-07
 1.573604e-07
 1.839251e-07
 2.089156e-07
 2.163877e-07
 1.668813e-07
 3.579667e-08
 -9.052175e-08
 -1.197961e-07
 -8.172783e-08
 -2.682166e-08
 3.728888e-08
 1.125141e-07
 1.583235e-07
 1.120340e-07
 2.253437e-08
 -2.248549e-08
 -4.303974e-08
 -7.584635e-08
 -8.837166e-08
 -4.957966e-08
 -4.006830e-08
 3.308059e-08
 3.484533e-07
 3.259898e-07
 -2.925153e-08
 -1.037926e-07
 -2.620680e-08
 1.792968e-08
 1.762096e-05
 5.010605e-07
 1.744906e-06
 -1.581951e-07
 -2.763832e-06
 -5.889041e-07
 1.725446e-05
 0.000000e+00
 0.000000e+00
 9.489480e-09
 1.883142e-08
 2.789442e-08
 3.657825e-08
 4.482765e-08
 5.264565e-08
 6.010913e-08
 6.738813e-08
 7.476577e-08
 8.264684e-08
 9.153590e-08
 1.019624e-07
 1.143306e-07
 1.286597e-07
 1.441434e-07
 1.583645e-07
 1.658693e-07
 1.564072e-07
 1.177204e-07
 5.182037e-08
 -1.168821e-08
 -4.426901e-08
 -4.958884e-08
 -4.717396e-08
 -3.961104e-08
 7.988434e-09
 1.063075e-07
 1.625614e-07
 1.246915e-07
 4.872771e-08
 -4.120147e-08
 -1.786115e-07
 -2.391531e-07
 -9.481716e-09
 8.794320e-08
 -1.001890e-06
 2.215390e-07
 1.005628e-06
 2.639616e-07
 1.150642e-07
 2.419425e-07
 9.046891e-07
 1.097499e-07
 -9.566297e-07
 2.650983e-07
 3.040829e-10
 -2.643497e-07
 5.947339e-07
 1.169805e-07
 0.000000e+00
 0.000000e+00
 9.839461e-09
 1.948114e-08
 2.875626e-08
 3.755098e-08
 4.582545e-08
 5.362283e-08
 6.106785e-08
 6.835721e-08
 7.574370e-08
 8.351184e-08
 9.193650e-08
 1.012106e-07
 1.113228e-07
 1.218606e-07
 1.317106e-07
 1.386479e-07
 1.389600e-07
 1.278370e-07
 1.021298e-07
 6.543278e-08
 2.887134e-08
 1.198750e-09
 -2.250416e-08
 -6.365792e-08
 -1.578182e-07
 -1.753959e-07
 1.067159e-07
 3.346412e-07
 2.529576e-07
 1.225161e-07
 8.019403e-09
 -1.885971e-07
 -1.269647e-06
 4.874064e-08
 9.833147e-07
 3.324570e-07
 1.763709e-05
 1.154730e-07
 1.150761e-07
 1.154964e-07
 1.712355e-07
 1.500885e-07
 -8.438132e-08
 -7.930103e-08
 6.615606e-08
 -4.721221e-08
 1.108194e-07
 4.058816e-07
 2.814614e-07
 0.000000e+00
 0.000000e+00
 1.039213e-08
 2.050677e-08
 3.011114e-08
 3.905811e-08
 4.731415e-08
 5.496451e-08
 6.219180e-08
 6.923488e-08
 7.633923e-08
 8.370800e-08
 9.145565e-08
 9.955678e-08
 1.077761e-07
 1.155653e-07
 1.219277e-07
 1.253049e-07
 1.236570e-07
 1.150782e-07
 9.919215e-08
 7.855998e-08
 5.790553e-08
 3.992004e-08
 1.927363e-08
 -2.746268e-08
 -1.833963e-07
 -1.241471e-06
 8.045514e-08
 9.878743e-07
 3.409333e-07
 1.688592e-07
 1.116437e-07
 1.039677e-07
 7.518776e-08
 1.757314e-05
 2.748434e-07
 9.619181e-07
 7.642770e-08
 -1.207497e-06
 -1.203104e-07
 5.651227e-08
 9.278087e-08
 -5.278890e-08
 -1.197721e-06
 -1.416049e-08
 6.929146e-07
 -1.032391e-06
 1.158729e-07
 9.796376e-07
 2.825186e-07
 0.000000e+00
 0.000000e+00
 1.122985e-08
 2.205726e-08
 3.214306e-08
 4.127671e-08
 4.942536e-08
 5.673884e-08
 6.350100e-08
 7.004413e-08
 7.665562e-08
 8.350251e-08
 9.058734e-08
 9.773358e-08
 1.045849e-07
 1.105988e-07
 1.150351e-07
 1.169829e-07
 1.155299e-07
 1.101804e-07
 1.014780e-07
 9.140927e-08
 8.296163e-08
 7.881778e-08
 8.028929e-08
 8.814403e-08
 1.093256e-07
 8.602347e-08
 1.754827e-05
 9.159164e-08
 1.257181e-07
 1.282814e-07
 1.769905e-07
 3.393255e-07
 9.804178e-07
 8.608466e-08
 -1.170613e-06
 -2.814116e-08
 -4.414626e-10
 -1.221682e-07
 -3.268854e-08
 9.271442e-08
 1.538973e-07
 1.818937e-07
 1.286376e-07
 1.755033e-05
 7.482355e-08
 5.676431e-08
 1.749368e-05
 2.835671e-08
 4.293450e-08
 0.000000e+00
 0.000000e+00
 1.248035e-08
 2.437119e-08
 3.515805e-08
 4.451241e-08
 5.239518e-08
 5.907273e-08
 6.502119e-08
 7.076402e-08
 7.670831e-08
 8.302883e-08
 8.962786e-08
 9.617468e-08
 1.021973e-07
 1.071780e-07
 1.106228e-07
 1.121238e-07
 1.114769e-07
 1.089025e-07
 1.053275e-07
 1.025817e-07
 1.034349e-07
 1.119007e-07
 1.354548e-07
 1.946667e-07
 3.642728e-07
 1.007270e-06
 9.887329e-08
 -1.215949e-06
 -1.387683e-07
 5.209250e-08
 1.571772e-07
 2.691800e-07
 3.202776e-07
 4.522740e-08
 -3.279911e-07
 -3.450646e-07
 -3.596641e-08
 1.878733e-07
 1.808347e-07
 1.850584e-07
 2.498653e-07
 4.201467e-07
 1.060044e-06
 1.747025e-07
 -1.004655e-06
 6.869065e-07
 -6.093896e-08
 -1.320684e-06
 -2.192745e-07
 0.000000e+00
 0.000000e+00
 1.433135e-08
 2.782012e-08
 3.965652e-08
 4.927412e-08
 5.660709e-08
 6.214354e-08
 6.672620e-08
 7.124155e-08
 7.633696e-08
 8.223623e-08
 8.869701e-08
 9.513345e-08
 1.008558e-07
 1.053057e-07
 1.081850e-07
 1.094811e-07
 1.094715e-07
 1.087821e-07
 1.085023e-07
 1.103214e-07
 1.167201e-07
 1.314937e-07
 1.612383e-07
 2.182603e-07
 3.179528e-07
 3.761675e-07
 1.351659e-07
 -1.420304e-07
 -1.001397e-07
 3.323817e-08
 1.195670e-07
 1.713794e-07
 1.539864e-07
 1.351634e-08
 -2.601267e-07
 -1.375642e-06
 -6.581606e-08
 8.670847e-07
 2.972727e-07
 2.289994e-07
 2.730319e-07
 3.651621e-07
 4.195051e-07
 1.982008e-07
 -1.126156e-08
 6.758345e-08
 -5.413116e-08
 -2.612527e-07
 -1.770657e-07
 0.000000e+00
 0.000000e+00
 1.702351e-08
 3.295999e-08
 4.646421e-08
 5.642083e-08
 6.267756e-08
 6.617420e-08
 6.845589e-08
 7.106443e-08
 7.507908e-08
 8.082118e-08
 8.777343e-08
 9.483170e-08
 1.008335e-07
 1.050521e-07
 1.073770e-07
 1.082002e-07
 1.082231e-07
 1.083515e-07
 1.097026e-07
 1.136752e-07
 1.220456e-07
 1.370620e-07
 1.612544e-07
 1.952844e-07
 2.276556e-07
 2.164094e-07
 1.253553e-07
 2.879277e-08
 1.578516e-08
 5.937096e-08
 1.070062e-07
 1.354930e-07
 1.302206e-07
 8.825218e-08
 3.846252e-08
 -5.099995e-08
 1.736736e-05
 -6.613390e-08
 8.335143e-08
 1.975749e-07
 2.541853e-07
 2.650091e-07
 2.283757e-07
 1.231114e-07
 2.268783e-08
 -1.188556e-08
 -4.393731e-08
 -7.611112e-08
 -5.560235e-08
 0.000000e+00
 0.000000e+00
 2.073073e-08
 4.056185e-08
 5.700243e-08
 6.746909e-08
 7.161057e-08
 7.141368e-08
 6.977751e-08
 6.934954e-08
 7.194379e-08
 7.808891e-08
 8.673524e-08
 9.566944e-08
 1.027065e-07
 1.067778e-07
 1.081191e-07
 1.077500e-07
 1.069029e-07
 1.067449e-07
 1.083436e-07
 1.127130e-07
 1.208075e-07
 1.333250e-07
 1.499983e-07
 1.676767e-07
 1.771108e-07
 1.639782e-07
 1.253320e-07
 8.618957e-08
 7.429884e-08
 8.901437e-08
 1.135172e-07
 1.347002e-07
 1.495633e-07
 1.756366e-07
 2.902761e-07
 8.527993e-07
 -1.829101e-07
 -1.533650e-06
 -1.744661e-07
 2.542706e-07
 2.724330e-07
 2.030792e-07
 1.320025e-07
 4.255969e-08
 -4.531455e-08
 -7.318604e-08
 -1.959567e-08
 3.500308e-08
 3.172749e-08
 0.000000e+00
 0.000000e+00
 2.494997e-08
 5.151321e-08
 7.397383e-08
 8.527863e-08
 8.501645e-08
 7.803069e-08
 6.975183e-08
 6.439720e-08
 6.497226e-08
 7.263378e-08
 8.541738e-08
 9.862162e-08
 1.077844e-07
 1.113632e-07
 1.105971e-07
 1.077596e-07
 1.048751e-07
 1.033740e-07
 1.042083e-07
 1.079954e-07
 1.150179e-07
 1.250110e-07
 1.366675e-07
 1.469149e-07
 1.507233e-07
 1.434711e-07
 1.265369e-07
 1.097278e-07
 1.035082e-07
 1.100960e-07
 1.248556e-07
 1.430792e-07
 1.653099e-07
 2.009734e-07
 2.624797e-07
 2.497835e-07
 -1.702447e-07
 -1.522567e-06
 -1.691575e-07
 8.625451e-07
 2.846858e-07
 1.386458e-07
 6.197599e-08
 -3.067840e-08
 -1.783295e-07
 -2.417662e-07
 1.010613e-08
 2.259061e-07
 1.417880e-07
 0.000000e+00
 0.000000e+00
 2.578996e-08
 6.630192e-08
 1.035909e-07
 1.156030e-07
 1.051192e-07
 8.568676e-08
 6.663156e-08
 5.323878e-08
 5.034152e-08
 6.150280e-08
 8.372975e-08
 1.062048e-07
 1.189569e-07
 1.204426e-07
 1.150744e-07
 1.077059e-07
 1.013844e-07
 9.761657e-08
 9.707042e-08
 9.995881e-08
 1.060934e-07
 1.147327e-07
 1.243478e-07
 1.325270e-07
 1.364627e-07
 1.344469e-07
 1.277755e-07
 1.208972e-07
 1.186222e-07
 1.230843e-07
 1.336317e-07
 1.490169e-07
 1.693409e-07
 1.950166e-07
 2.165164e-07
 1.959437e-07
 1.078750e-07
 -2.871417e-08
 1.740523e-05
 -2.469810e-08
 3.396772e-08
 3.069842e-08
 1.275554e-08
 -4.771950e-08
 -2.269580e-07
 -1.309376e-06
 -6.978620e-09
 8.860864e-07
 2.210339e-07
 0.000000e+00
 0.000000e+00
 3.867764e-09
 8.380741e-08
 1.644410e-07
 1.699397e-07
 1.329149e-07
 9.225073e-08
 5.792330e-08
 3.154992e-08
 2.044749e-08
 3.760413e-08
 8.198208e-08
 1.253072e-07
 1.424507e-07
 1.363152e-07
 1.211810e-07
 1.063444e-07
 9.521228e-08
 8.857090e-08
 8.643665e-08
 8.858662e-08
 9.453021e-08
 1.033159e-07
 1.133656e-07
 1.225439e-07
 1.287059e-07
 1.307107e-07
 1.292917e-07
 1.269104e-07
 1.264630e-07
 1.298994e-07
 1.378621e-07
 1.502831e-07
 1.669721e-07
 1.872197e-07
 2.093680e-07
 2.411192e-07
 3.560960e-07
 9.435065e-07
 6.171604e-09
 -1.313263e-06
 -2.362529e-07
 -5.963966e-08
 6.417428e-10
 2.439639e-08
 4.325956e-08
 1.088563e-08
 1.746337e-05
 -2.009188e-09
 2.132112e-08
 0.000000e+00
 0.000000e+00
 -1.326575e-07
 1.032937e-07
 3.278074e-07
 2.630396e-07
 1.582827e-07
 9.159977e-08
 4.248207e-08
 -3.716513e-09
 -4.002903e-08
 -1.994139e-08
 8.207641e-08
 1.770053e-07
 1.908104e-07
 1.598021e-07
 1.259572e-07
 1.009048e-07
 8.445692e-08
 7.499166e-08
 7.147770e-08
 7.334341e-08
 8.001461e-08
 9.052756e-08
 1.032373e-07
 1.157461e-07
 1.254512e-07
 1.307254e-07
 1.318453e-07
 1.307966e-07
 1.301709e-07
 1.320700e-07
 1.376451e-07
 1.472329e-07
 1.607091e-07
 1.779638e-07
 2.005468e-07
 2.368280e-07
 3.045022e-07
 3.298518e-07
 6.556753e-08
 -2.238433e-07
 -1.888729e-07
 -6.264983e-08
 1.960684e-08
 1.040293e-07
 2.816788e-07
 9.249130e-07
 1.463901e-08
 -1.300368e-06
 -2.171820e-07
 0.000000e+00
 0.000000e+00
 -1.221595e-06
 5.411220e-08
 9.535487e-07
 3.109973e-07
 1.417781e-07
 7.513635e-08
 2.677186e-08
 -3.960922e-08
 -1.570479e-07
 -1.890922e-07
 9.355337e-08
 3.373117e-07
 2.800968e-07
 1.798537e-07
 1.205668e-07
 8.681098e-08
 6.685869e-08
 5.554214e-08
 5.113490e-08
 5.322775e-08
 6.153980e-08
 7.539808e-08
 9.325218e-08
 1.119218e-07
 1.269822e-07
 1.352083e-07
 1.366661e-07
 1.341568e-07
 1.311775e-07
 1.304237e-07
 1.333406e-07
 1.402745e-07
 1.508353e-07
 1.643881e-07
 1.806452e-07
 1.989899e-07
 2.098176e-07
 1.760542e-07
 6.642924e-08
 -4.271745e-08
 -6.273731e-08
 -1.990486e-08
 4.059433e-08
 1.168227e-07
 2.260720e-07
 2.883765e-07
 4.990427e-08
 -2.224156e-07
 -1.674233e-07
 0.000000e+00
 0.000000e+00
 -5.202103e-09
 1.746646e-05
 1.881593e-08
 5.791881e-08
 4.989944e-08
 4.574127e-08
 2.849872e-08
 -2.421909e-08
 -1.902897e-07
 -1.257000e-06
 6.147411e-08
 9.705901e-07
 3.268908e-07
 1.550724e-07
 9.126372e-08
 6.001484e-08
 4.116091e-08
 2.937863e-08
 2.429182e-08
 2.682664e-08
 3.739189e-08