<VTKFile type="UnstructuredGrid"  version="0.1"   >
<UnstructuredGrid>  
<Piece  NumberOfPoints="     2601"  NumberOfCells="     5000">  
<Points>  
<DataArray  type="Float64"  NumberOfComponents="3"  format="ascii">  
 0.000000 0.000000 0.000000 
 0.020000 0.000000 0.000000 
 0.040000 0.000000 0.000000 
 0.060000 0.000000 0.000000 
 0.080000 0.000000 0.000000 
 0.100000 0.000000 0.000000 
 0.120000 0.000000 0.000000 
 0.140000 0.000000 0.000000 
 0.160000 0.000000 0.000000 
 0.180000 0.000000 0.000000 
 0.200000 0.000000 0.000000 
 0.220000 0.000000 0.000000 
 0.240000 0.000000 0.000000 
 0.260000 0.000000 0.000000 
 0.280000 0.000000 0.000000 
 0.300000 0.000000 0.000000 
 0.320000 0.000000 0.000000 
 0.340000 0.000000 0.000000 
 0.360000 0.000000 0.000000 
 0.380000 0.000000 0.000000 
 0.400000 0.000000 0.000000 
 0.420000 0.000000 0.000000 
 0.440000 0.000000 0.000000 
 0.460000 0.000000 0.000000 
 0.480000 0.000000 0.000000 
 0.500000 0.000000 0.000000 
 0.520000 0.000000 0.000000 
 0.540000 0.000000 0.000000 
 0.560000 0.000000 0.000000 
 0.580000 0.000000 0.000000 
 0.600000 0.000000 0.000000 
 0.620000 0.000000 0.000000 
 0.640000 0.000000 0.000000 
 0.660000 0.000000 0.000000 
 0.680000 0.000000 0.000000 
 0.700000 0.000000 0.000000 
 0.720000 0.000000 0.000000 
 0.740000 0.000000 0.000000 
 0.760000 0.000000 0.000000 
 0.780000 0.000000 0.000000 
 0.800000 0.000000 0.000000 
 0.820000 0.000000 0.000000 
 0.840000 0.000000 0.000000 
 0.860000 0.000000 0.000000 
 0.880000 0.000000 0.000000 
 0.900000 0.000000 0.000000 
 0.920000 0.000000 0.000000 
 0.940000 0.000000 0.000000 
 0.960000 0.000000 0.000000 
 0.980000 0.000000 0.000000 
 1.000000 0.000000 0.000000 
 0.000000 0.020000 0.000000 
 0.020000 0.020000 0.000000 
 0.040000 0.020000 0.000000 
 0.060000 0.020000 0.000000 
 0.080000 0.020000 0.000000 
 0.100000 0.020000 0.000000 
 0.120000 0.020000 0.000000 
 0.140000 0.020000 0.000000 
 0.160000 0.020000 0.000000 
 0.180000 0.020000 0.000000 
 0.200000 0.020000 0.000000 
 0.220000 0.020000 0.000000 
 0.240000 0.020000 0.000000 
 0.260000 0.020000 0.000000 
 0.280000 0.020000 0.000000 
 0.300000 0.020000 0.000000 
 0.320000 0.020000 0.000000 
 0.340000 0.020000 0.000000 
 0.360000 0.020000 0.000000 
 0.380000 0.020000 0.000000 
 0.400000 0.020000 0.000000 
 0.420000 0.020000 0.000000 
 0.440000 0.020000 0.000000 
 0.460000 0.020000 0.000000 
 0.480000 0.020000 0.000000 
 0.500000 0.020000 0.000000 
 0.520000 0.020000 0.000000 
 0.540000 0.020000 0.000000 
 0.560000 0.020000 0.000000 
 0.580000 0.020000 0.000000 
 0.600000 0.020000 0.000000 
 0.620000 0.020000 0.000000 
 0.640000 0.020000 0.000000 
 0.660000 0.020000 0.000000 
 0.680000 0.020000 0.000000 
 0.700000 0.020000 0.000000 
 0.720000 0.020000 0.000000 
 0.740000 0.020000 0.000000 
 0.760000 0.020000 0.000000 
 0.780000 0.020000 0.000000 
 0.800000 0.020000 0.000000 
 0.820000 0.020000 0.000000 
 0.840000 0.020000 0.000000 
 0.860000 0.020000 0.000000 
 0.880000 0.020000 0.000000 
 0.900000 0.020000 0.000000 
 0.920000 0.020000 0.000000 
 0.940000 0.020000 0.000000 
 0.960000 0.020000 0.000000 
 0.980000 0.020000 0.000000 
 1.000000 0.020000 0.000000 
 0.000000 0.040000 0.000000 
 0.020000 0.040000 0.000000 
 0.040000 0.040000 0.000000 
 0.060000 0.040000 0.000000 
 0.080000 0.040000 0.000000 
 0.100000 0.040000 0.000000 
 0.120000 0.040000 0.000000 
 0.140000 0.040000 0.000000 
 0.160000 0.040000 0.000000 
 0.180000 0.040000 0.000000 
 0.200000 0.040000 0.000000 
 0.220000 0.040000 0.000000 
 0.240000 0.040000 0.000000 
 0.260000 0.040000 0.000000 
 0.280000 0.040000 0.000000 
 0.300000 0.040000 0.000000 
 0.320000 0.040000 0.000000 
 0.340000 0.040000 0.000000 
 0.360000 0.040000 0.000000 
 0.380000 0.040000 0.000000 
 0.400000 0.040000 0.000000 
 0.420000 0.040000 0.000000 
 0.440000 0.040000 0.000000 
 0.460000 0.040000 0.000000 
 0.480000 0.040000 0.000000 
 0.500000 0.040000 0.000000 
 0.520000 0.040000 0.000000 
 0.540000 0.040000 0.000000 
 0.560000 0.040000 0.000000 
 0.580000 0.040000 0.000000 
 0.600000 0.040000 0.000000 
 0.620000 0.040000 0.000000 
 0.640000 0.040000 0.000000 
 0.660000 0.040000 0.000000 
 0.680000 0.040000 0.000000 
 0.700000 0.040000 0.000000 
 0.720000 0.040000 0.000000 
 0.740000 0.040000 0.000000 
 0.760000 0.040000 0.000000 
 0.780000 0.040000 0.000000 
 0.800000 0.040000 0.000000 
 0.820000 0.040000 0.000000 
 0.840000 0.040000 0.000000 
 0.860000 0.040000 0.000000 
 0.880000 0.040000 0.000000 
 0.900000 0.040000 0.000000 
 0.920000 0.040000 0.000000 
 0.940000 0.040000 0.000000 
 0.960000 0.040000 0.000000 
 0.980000 0.040000 0.000000 
 1.000000 0.040000 0.000000 
 0.000000 0.060000 0.000000 
 0.020000 0.060000 0.000000 
 0.040000 0.060000 0.000000 
 0.060000 0.060000 0.000000 
 0.080000 0.060000 0.000000 
 0.100000 0.060000 0.000000 
 0.120000 0.060000 0.000000 
 0.140000 0.060000 0.000000 
 0.160000 0.060000 0.000000 
 0.180000 0.060000 0.000000 
 0.200000 0.060000 0.000000 
 0.220000 0.060000 0.000000 
 0.240000 0.060000 0.000000 
 0.260000 0.060000 0.000000 
 0.280000 0.060000 0.000000 
 0.300000 0.060000 0.000000 
 0.320000 0.060000 0.000000 
 0.340000 0.060000 0.000000 
 0.360000 0.060000 0.000000 
 0.380000 0.060000 0.000000 
 0.400000 0.060000 0.000000 
 0.420000 0.060000 0.000000 
 0.440000 0.060000 0.000000 
 0.460000 0.060000 0.000000 
 0.480000 0.060000 0.000000 
 0.500000 0.060000 0.000000 
 0.520000 0.060000 0.000000 
 0.540000 0.060000 0.000000 
 0.560000 0.060000 0.000000 
 0.580000 0.060000 0.000000 
 0.600000 0.060000 0.000000 
 0.620000 0.060000 0.000000 
 0.640000 0.060000 0.000000 
 0.660000 0.060000 0.000000 
 0.680000 0.060000 0.000000 
 0.700000 0.060000 0.000000 
 0.720000 0.060000 0.000000 
 0.740000 0.060000 0.000000 
 0.760000 0.060000 0.000000 
 0.780000 0.060000 0.000000 
 0.800000 0.060000 0.000000 
 0.820000 0.060000 0.000000 
 0.840000 0.060000 0.000000 
 0.860000 0.060000 0.000000 
 0.880000 0.060000 0.000000 
 0.900000 0.060000 0.000000 
 0.920000 0.060000 0.000000 
 0.940000 0.060000 0.000000 
 0.960000 0.060000 0.000000 
 0.980000 0.060000 0.000000 
 1.000000 0.060000 0.000000 
 0.000000 0.080000 0.000000 
 0.020000 0.080000 0.000000 
 0.040000 0.080000 0.000000 
 0.060000 0.080000 0.000000 
 0.080000 0.080000 0.000000 
 0.100000 0.080000 0.000000 
 0.120000 0.080000 0.000000 
 0.140000 0.080000 0.000000 
 0.160000 0.080000 0.000000 
 0.180000 0.080000 0.000000 
 0.200000 0.080000 0.000000 
 0.220000 0.080000 0.000000 
 0.240000 0.080000 0.000000 
 0.260000 0.080000 0.000000 
 0.280000 0.080000 0.000000 
 0.300000 0.080000 0.000000 
 0.320000 0.080000 0.000000 
 0.340000 0.080000 0.000000 
 0.360000 0.080000 0.000000 
 0.380000 0.080000 0.000000 
 0.400000 0.080000 0.000000 
 0.420000 0.080000 0.000000 
 0.440000 0.080000 0.000000 
 0.460000 0.080000 0.000000 
 0.480000 0.080000 0.000000 
 0.500000 0.080000 0.000000 
 0.520000 0.080000 0.000000 
 0.540000 0.080000 0.000000 
 0.560000 0.080000 0.000000 
 0.580000 0.080000 0.000000 
 0.600000 0.080000 0.000000 
 0.620000 0.080000 0.000000 
 0.640000 0.080000 0.000000 
 0.660000 0.080000 0.000000 
 0.680000 0.080000 0.000000 
 0.700000 0.080000 0.000000 
 0.720000 0.080000 0.000000 
 0.740000 0.080000 0.000000 
 0.760000 0.080000 0.000000 
 0.780000 0.080000 0.000000 
 0.800000 0.080000 0.000000 
 0.820000 0.080000 0.000000 
 0.840000 0.080000 0.000000 
 0.860000 0.080000 0.000000 
 0.880000 0.080000 0.000000 
 0.900000 0.080000 0.000000 
 0.920000 0.080000 0.000000 
 0.940000 0.080000 0.000000 
 0.960000 0.080000 0.000000 
 0.980000 0.080000 0.000000 
 1.000000 0.080000 0.000000 
 0.000000 0.100000 0.000000 
 0.020000 0.100000 0.000000 
 0.040000 0.100000 0.000000 
 0.060000 0.100000 0.000000 
 0.080000 0.100000 0.000000 
 0.100000 0.100000 0.000000 
 0.120000 0.100000 0.000000 
 0.140000 0.100000 0.000000 
 0.160000 0.100000 0.000000 
 0.180000 0.100000 0.000000 
 0.200000 0.100000 0.000000 
 0.220000 0.100000 0.000000 
 0.240000 0.100000 0.000000 
 0.260000 0.100000 0.000000 
 0.280000 0.100000 0.000000 
 0.300000 0.100000 0.000000 
 0.320000 0.100000 0.000000 
 0.340000 0.100000 0.000000 
 0.360000 0.100000 0.000000 
 0.380000 0.100000 0.000000 
 0.400000 0.100000 0.000000 
 0.420000 0.100000 0.000000 
 0.440000 0.100000 0.000000 
 0.460000 0.100000 0.000000 
 0.480000 0.100000 0.000000 
 0.500000 0.100000 0.000000 
 0.520000 0.100000 0.000000 
 0.540000 0.100000 0.000000 
 0.560000 0.100000 0.000000 
 0.580000 0.100000 0.000000 
 0.600000 0.100000 0.000000 
 0.620000 0.100000 0.000000 
 0.640000 0.100000 0.000000 
 0.660000 0.100000 0.000000 
 0.680000 0.100000 0.000000 
 0.700000 0.100000 0.000000 
 0.720000 0.100000 0.000000 
 0.740000 0.100000 0.000000 
 0.760000 0.100000 0.000000 
 0.780000 0.100000 0.000000 
 0.800000 0.100000 0.000000 
 0.820000 0.100000 0.000000 
 0.840000 0.100000 0.000000 
 0.860000 0.100000 0.000000 
 0.880000 0.100000 0.000000 
 0.900000 0.100000 0.000000 
 0.920000 0.100000 0.000000 
 0.940000 0.100000 0.000000 
 0.960000 0.100000 0.000000 
 0.980000 0.100000 0.000000 
 1.000000 0.100000 0.000000 
 0.000000 0.120000 0.000000 
 0.020000 0.120000 0.000000 
 0.040000 0.120000 0.000000 
 0.060000 0.120000 0.000000 
 0.080000 0.120000 0.000000 
 0.100000 0.120000 0.000000 
 0.120000 0.120000 0.000000 
 0.140000 0.120000 0.000000 
 0.160000 0.120000 0.000000 
 0.180000 0.120000 0.000000 
 0.200000 0.120000 0.000000 
 0.220000 0.120000 0.000000 
 0.240000 0.120000 0.000000 
 0.260000 0.120000 0.000000 
 0.280000 0.120000 0.000000 
 0.300000 0.120000 0.000000 
 0.320000 0.120000 0.000000 
 0.340000 0.120000 0.000000 
 0.360000 0.120000 0.000000 
 0.380000 0.120000 0.000000 
 0.400000 0.120000 0.000000 
 0.420000 0.120000 0.000000 
 0.440000 0.120000 0.000000 
 0.460000 0.120000 0.000000 
 0.480000 0.120000 0.000000 
 0.500000 0.120000 0.000000 
 0.520000 0.120000 0.000000 
 0.540000 0.120000 0.000000 
 0.560000 0.120000 0.000000 
 0.580000 0.120000 0.000000 
 0.600000 0.120000 0.000000 
[...]
<PointData  Scalars="U"> 
<DataArray  type="Float64"  Name="U"  format="ascii"> 
 0.000000e+00
 0.000000e+00
 0.000000e+00
 0.000000e+00
 0.000000e+00
 0.000000e+00
 0.000000e+00
 0.000000e+00
 0.000000e+00
 0.000000e+00
 0.000000e+00
 0.000000e+00
 0.000000e+00
 0.000000e+00
 0.000000e+00
 0.000000e+00
 0.000000e+00
 0.000000e+00
 0.000000e+00
 0.000000e+00
 0.000000e+00
 0.000000e+00
 0.000000e+00
 0.000000e+00
 0.000000e+00
 0.000000e+00
 0.000000e+00
 0.000000e+00
 0.000000e+00
 0.000000e+00
 0.000000e+00
 0.000000e+00
 0.000000e+00
 0.000000e+00
 0.000000e+00
 0.000000e+00
 0.000000e+00
 0.000000e+00
 0.000000e+00
 0.000000e+00
 0.000000e+00
 0.000000e+00
 0.000000e+00
 0.000000e+00
 0.000000e+00
 0.000000e+00
 0.000000e+00
 0.000000e+00
 0.000000e+00
 0.000000e+00
 0.000000e+00
 0.000000e+00
 -1.845101e-08
 -1.483030e-07
 -1.231196e-06
 -9.317917e-09
 8.112493e-07
 1.614247e-07
 3.041285e-08
 1.319465e-08
 2.227529e-08
 3.179875e-08
 1.048571e-08
 -1.617358e-07
 -1.432577e-06
 -1.415913e-06
 5.680900e-07
 9.770052e-07
 3.990504e-07
 1.524081e-07
 -1.009716e-07
 -1.241411e-06
 -6.752319e-08
 6.858562e-07
 -4.819501e-08
 -1.257412e-07
 2.112037e-07
 5.126141e-07
 6.148646e-07
 6.535660e-07
 1.782495e-05
 1.737971e-05
 -2.863851e-07
 1.700266e-05
 -5.871055e-07
 -3.895361e-07
 -2.521742e-07
 -2.161931e-07
 -2.218234e-07
 -1.685096e-07
 1.022789e-07
 2.841520e-07
 1.814153e-07
 6.749571e-08
 1.406483e-08
 -6.641305e-09
 -1.221111e-08
 -1.011320e-08
 -4.596481e-09
 2.212118e-10
 1.494559e-09
 0.000000e+00
 0.000000e+00
 3.777273e-08
 7.310088e-08
 3.568363e-08
 1.745740e-05
 -3.852652e-08
 -2.006923e-08
 -1.935159e-08
 7.255359e-09
 4.347050e-08
 8.439485e-08
 1.238811e-07
 1.495433e-07
 6.492703e-08
 1.724981e-05
 1.607553e-05
 -1.011684e-07
 8.340179e-07
 2.284516e-07
 1.080233e-07
 9.367100e-09
 1.736694e-05
 -2.720193e-07
 -4.321941e-07
 -1.203565e-06
 4.129284e-07
 1.395099e-06
 9.546832e-07
 1.585405e-06
 1.182423e-06
 -1.115856e-06
 -9.457899e-07
 -8.581488e-07
 -2.074475e-06
 -7.052173e-07
 -3.715911e-07
 -4.289853e-07
 -3.403386e-07
 -1.107318e-06
 2.109320e-07
 1.013264e-06
 2.842746e-07
 7.135201e-08
 -1.688798e-09
 -2.671794e-08
 -3.168041e-08
 -2.376460e-08
 -8.294742e-09
 4.581888e-09
 6.799115e-09
 0.000000e+00
 0.000000e+00
 9.945469e-08
 2.873395e-07
 9.289049e-07
 4.443790e-09
 -1.330073e-06
 -2.677805e-07
 -8.937177e-08
 -6.779479e-09
 5.965450e-08
 1.368761e-07
 2.513756e-07
 4.874854e-07
 1.270017e-06
 9.415437e-07
 -1.407092e-06
 1.576945e-05
 -3.741196e-07
 5.968200e-09
 2.434030e-07
 8.891663e-07
 -4.508819e-08
 -1.493853e-06
 -1.453222e-06
 3.119355e-08
 1.850750e-05
 5.328633e-07
 5.827279e-07
 6.822315e-07
 4.606170e-07
 -8.750518e-08
 -4.316438e-07
 -7.758566e-07
 -2.017323e-06
 -6.555980e-07
 2.170583e-07
 -1.493221e-06
 -3.040574e-07
 8.198889e-07
 1.785601e-05
 1.594953e-07
 3.683402e-08
 -3.711514e-08
 -5.713920e-08
 -6.375402e-08
 -6.401514e-08
 -4.626461e-08
 -9.057433e-09
 2.160825e-08
 2.246176e-08
 0.000000e+00
 0.000000e+00
 9.870062e-08
 2.207415e-07
 2.858251e-07
 4.035271e-08
 -2.471158e-07
 -2.165567e-07
 -9.299982e-08
 -1.041955e-08
 6.481720e-08
 1.583221e-07
 2.903647e-07
 4.808230e-07
 6.634981e-07
 5.570220e-07
 5.145675e-07
 -7.185470e-07
 -1.631328e-06
 -1.369081e-07
 1.320103e-07
 2.264764e-07
 1.063916e-07
 -6.813096e-09
 1.903669e-07
 1.840258e-05
 1.062564e-07
 -1.110325e-06
 1.670573e-08
 2.051101e-07
 1.553757e-07
 -2.575277e-08
 -1.915699e-07
 -2.968989e-07
 -3.892409e-07
 1.709450e-05
 -2.993860e-07
 -3.399457e-07
 1.623728e-05
 7.339938e-07
 7.420511e-07
 -1.249176e-06
 -3.417536e-07
 -1.916981e-07
 -1.205299e-07
 -1.033685e-07
 -1.162180e-07
 -9.478351e-08
 -2.616252e-09
 7.508696e-08
 6.398422e-08
 0.000000e+00
 0.000000e+00
 7.002136e-08
 1.258026e-07
 1.257786e-07
 3.580437e-08
 -6.671926e-08
 -8.946706e-08
 -5.551796e-08
 -8.505311e-09
 5.071378e-08
 1.416694e-07
 2.697890e-07
 4.000245e-07
 4.597869e-07
 3.703122e-07
 2.470773e-08
 -1.447659e-06
 -4.345743e-07
 5.355957e-07
 -8.521156e-09
 -8.832428e-08
 1.827590e-07
 5.581728e-07
 1.234978e-06
 3.350757e-07
 -1.222619e-06
 -4.158857e-07
 -2.005484e-07
 -3.961743e-08
 6.230395e-10
 -9.984714e-09
 -9.915218e-09
 9.879151e-08
 7.190737e-07
 -1.162244e-07
 -1.187045e-06
 6.390621e-07
 -2.647963e-08
 1.619251e-05
 -4.791903e-07
 -6.107629e-07
 -5.266304e-07
 -2.906730e-07
 -1.267395e-07
 -1.032757e-07
 -2.043658e-07
 -2.449340e-07
 2.189966e-08
 2.446827e-07
 1.557997e-07
 0.000000e+00
 0.000000e+00
 4.964874e-08
 8.307805e-08
 8.339854e-08
 4.807784e-08
 4.020113e-09
 -1.922545e-08
 -2.116802e-08
 -1.559663e-08
 2.525871e-09
 7.994112e-08
 2.406154e-07
 3.859972e-07
 4.204282e-07
 3.548428e-07
 2.223135e-07
 -3.968867e-09
 1.730414e-05
 -2.083915e-07
 -2.726602e-07
 -1.278086e-06
 1.105938e-07
 1.132934e-06
 5.806724e-07
 1.803794e-07
 -2.237125e-07
 -2.986112e-07
 -2.218824e-07
 -1.644215e-07
 -1.056003e-07
 -3.167911e-09
 9.495168e-08
 1.587609e-07
 1.776074e-07
 8.045583e-09
 -1.842398e-08
 3.430485e-07
 8.701275e-07
 -3.559476e-07
 -1.822086e-06
 -8.861950e-07
 -7.287016e-07
 -3.179753e-07
 2.969888e-08
 1.737168e-08
 -1.900569e-07
 -1.288597e-06
 6.929142e-09
 8.967069e-07
 2.273830e-07
 0.000000e+00
 0.000000e+00
 4.480386e-08
 7.555911e-08
 8.332142e-08
 6.978112e-08
 4.715946e-08
 2.711347e-08
 8.574803e-09
 -2.544064e-08
 -1.053507e-07
 -9.603626e-08
 2.285727e-07
 5.094511e-07
 4.797173e-07
 4.074005e-07
 4.508261e-07
 9.772519e-07
 -1.119123e-08
 -1.349884e-06
 -2.489777e-07
 -7.468614e-08
 1.747999e-05
 7.965554e-08
 1.112398e-07
 2.418629e-09
 -1.271609e-07
 -1.904785e-07
 -2.140587e-07
 -2.811070e-07
 -2.816185e-07
 1.304261e-08
 2.579154e-07
 1.828114e-07
 -8.503606e-09
 -1.227365e-07
 1.231635e-07
 4.159038e-07
 3.246538e-07
 -1.526930e-07
 -6.227048e-07
 -8.279574e-07
 -1.804009e-06
 -3.720673e-07
 7.115116e-07
 2.233194e-07
 1.282846e-07
 4.630979e-08
 1.747592e-05
 2.124173e-09
 2.270682e-08
 0.000000e+00
 0.000000e+00
 5.480429e-08
 9.295051e-08
 1.067153e-07
 1.005057e-07
 8.523088e-08
 6.924874e-08
 5.115613e-08
 1.042566e-08
 -1.335394e-07
 -1.171822e-06
 1.776435e-07
 1.117310e-06
 5.039461e-07
 3.712910e-07
 3.746145e-07
 3.680352e-07
 9.583077e-08
 -1.555226e-07
 3.801603e-08
 7.993016e-07
 -4.525326e-08
 -1.335572e-06
 -2.739384e-07
 -1.415107e-07
 -1.264392e-07
 -1.306302e-07
 -1.556913e-07
 -2.908752e-07
 -1.335070e-06
 -5.634818e-09
 9.032604e-07
 2.320856e-07
 -8.062447e-08
 -1.197196e-06
 9.800565e-08
 9.850417e-07
 2.647374e-07
 -7.136899e-08
 -2.985023e-07
 -4.022968e-07
 -5.157029e-07
 1.697067e-05
 -1.341087e-07
 2.394605e-07
 3.743416e-07
 9.484674e-07
 1.200040e-08
 -1.307563e-06
 -2.215924e-07
 0.000000e+00
 0.000000e+00
 8.311499e-08
 1.370493e-07
 1.512576e-07
 1.397762e-07
 1.223607e-07
 1.108484e-07
 1.094844e-07
 1.196669e-07
 1.484326e-07
 1.376153e-07
 1.761583e-05
 1.756103e-07
 2.221469e-07
 2.245988e-07
 2.308890e-07
 1.988738e-07
 1.038971e-07
 3.616619e-08
 9.863581e-08
 1.749759e-07
 -4.916039e-08
 -3.299165e-07
 -3.090373e-07
 -1.980706e-07
 -1.211384e-07
 -6.089216e-08
 -1.624128e-08
 2.587378e-08
 1.172485e-08
 1.747308e-05
 1.536500e-08
 6.401633e-08
 9.907999e-08
 9.488765e-08
 1.755088e-05
 5.781823e-08
 2.293966e-08
 -7.134666e-08
 -1.210499e-07
 -4.836789e-08
 4.306170e-07
 -1.512268e-06
 -1.454740e-06
 6.112216e-07
 2.717249e-07
 2.542316e-07
 1.254764e-08
 -2.468259e-07
 -1.785970e-07
 0.000000e+00
 0.000000e+00
 1.439762e-07
 2.260298e-07
 2.220792e-07
 1.831849e-07
 1.522640e-07
 1.417968e-07
 1.567547e-07
 2.145124e-07
 3.875473e-07
 1.037042e-06
 1.360572e-07
 -1.173632e-06
 -9.873022e-08
 7.293564e-08
 1.230953e-07
 1.207884e-07
 8.949645e-08
 6.317148e-08
 5.925347e-08
 3.211934e-08
 -7.608410e-08
 -2.072781e-07
 -2.655278e-07
 -2.265727e-07
 -1.024695e-07
 2.743185e-08
 1.290686e-07
 3.158121e-07
 9.641526e-07
 3.638430e-08
 -1.302117e-06
 -1.751580e-07
 2.409841e-07
 1.011480e-06
 1.157283e-07
 -1.247410e-06
 -2.345921e-07
 -1.072699e-07
 -5.157962e-08
 3.912456e-08
 1.128472e-07
 -1.411930e-07
 1.707017e-05
 -3.037972e-07
 -9.656427e-08
 -2.255547e-08
 -4.588281e-08
 -9.482260e-08
 -7.397037e-08
 0.000000e+00
 0.000000e+00
 2.714925e-07
 4.199261e-07
 3.226079e-07
 2.125124e-07
 1.609444e-07
 1.489953e-07
 1.676963e-07
 2.216236e-07
 3.222645e-07
 3.830333e-07
 1.439701e-07
 -1.346243e-07
 -1.011634e-07
 1.199353e-08
 6.301089e-08
 7.594344e-08
 6.833611e-08
 5.417312e-08
 3.620363e-08
 -7.667194e-10
 -7.280638e-08
 -1.774724e-07
 -3.185553e-07
 -3.593232e-07
 -8.115873e-08
 1.746482e-07
 2.057546e-07
 3.107125e-07
 3.957735e-07
 1.012751e-07
 -3.074044e-07
 -2.907877e-07
 1.747483e-07
 5.109644e-07
 2.212992e-07
 -1.607806e-07
 -1.893609e-07
 -9.979204e-08
 -2.868608e-08
 5.943936e-08
 2.122540e-07
 7.615967e-07
 -2.413740e-07
 -1.559398e-06
 -4.199373e-07
 -1.724133e-07
 -7.292965e-08
 -4.160823e-08
 -2.432368e-08
 0.000000e+00
 0.000000e+00
 2.707034e-07
 1.032064e-06
 3.529884e-07
 1.808549e-07
 1.325483e-07
 1.277713e-07
 1.455034e-07
 1.783379e-07
 2.114214e-07
 2.008960e-07
 1.089497e-07
 8.097436e-09
 -1.451962e-08
 1.285277e-08
 3.948164e-08
 5.158543e-08
 5.191188e-08
 4.507736e-08
 3.164620e-08
 6.480187e-09
 -3.813710e-08
 -1.176075e-07
 -3.047109e-07
 -1.391510e-06
 -1.092376e-07
 7.196708e-07
 8.880917e-08
 2.392242e-07
 4.059627e-07
 1.956368e-07
 -1.573897e-07
 -1.275542e-06
 6.952721e-08
 9.781017e-07
 2.505303e-07
 -1.529072e-08
 -9.089395e-08
 -7.301262e-08
 -2.545692e-08
 3.699338e-08
 1.142329e-07
 1.176914e-07
 -1.881637e-07
 -5.036665e-07
 -4.316426e-07
 -1.953202e-07
 -3.120486e-08
 1.854171e-08
 1.303042e-08
 0.000000e+00
 0.000000e+00
 1.744235e-05
 1.049941e-08
 5.501377e-08
 5.466981e-08
 6.765577e-08
 8.588339e-08
 1.074082e-07
 1.287111e-07
 1.403515e-07
 1.276605e-07
 8.707409e-08
 4.277411e-08
 2.174846e-08
 2.332316e-08
 3.234460e-08
 3.919793e-08
 4.187742e-08
 4.141787e-08
 3.853380e-08
 3.291982e-08
 2.502390e-08
 1.821631e-08
 2.260486e-08
 -2.203520e-08
 1.739481e-05
 -2.119691e-07
 -1.228329e-06
 9.084193e-08
 9.926452e-07
 3.233058e-07
 1.391055e-07
 4.456337e-08
 1.748572e-05
 7.023253e-09
 -5.248885e-09
 -6.204609e-08
 -7.974218e-08
 -6.563456e-08
 -3.535326e-08
 -2.916911e-09
 1.045908e-08
 -4.305251e-08
 -2.059644e-07
 -4.224990e-07
 -4.659068e-07
 -1.392185e-07
 1.502875e-07
 1.268252e-07
 4.962983e-08
 0.000000e+00
 0.000000e+00
 -2.659328e-07
 -1.412721e-06
 -2.812799e-07
 -8.076633e-08
 -1.893038e-09
 4.042168e-08
 6.848104e-08
 8.731789e-08
 9.515424e-08
 8.868818e-08
 6.964598e-08
 4.767894e-08
 3.301037e-08
 2.798793e-08
 2.875586e-08
 3.143152e-08
 3.485336e-08
 3.992987e-08
 4.827215e-08
 6.216445e-08
 8.780571e-08
 1.462220e-07
 3.143955e-07
 9.581962e-07
 5.576669e-08
 -1.240207e-06
 -1.918417e-07
 1.744471e-05
 5.424468e-08
 1.425797e-07
 2.834309e-07
 9.104602e-07
 -9.944737e-09
 -1.343281e-06
 -2.974853e-07
 -1.499298e-07
 -1.022264e-07
 -7.340629e-08
 -4.805645e-08
 -2.938036e-08
 -2.993312e-08
 -6.944428e-08
 -1.681537e-07
 -3.763924e-07
 -1.454300e-06
 -1.187840e-07
 8.183367e-07
 2.023593e-07
 5.306829e-08
 0.000000e+00
 0.000000e+00
 -1.864216e-07
 -3.686690e-07
 -2.771738e-07
 -1.261742e-07
 -4.211329e-08
 6.968899e-09
 3.772174e-08
 5.657930e-08
 6.517368e-08
 6.400904e-08
 5.528520e-08
 4.357034e-08
 3.346797e-08
 2.700654e-08
 2.381384e-08
 2.327800e-08
 2.625398e-08
 3.520218e-08
 5.295008e-08
 8.159026e-08
 1.244295e-07
 1.920285e-07
 3.025970e-07
 3.812200e-07
 1.931880e-07
 7.749437e-08
 7.517137e-07
 -3.807979e-08
 -1.282516e-06
 -1.475134e-07
 1.151534e-07
 2.190668e-07
 -1.257414e-08
 -2.975189e-07
 -2.751445e-07
 -1.694144e-07
 -1.137721e-07
 -8.003174e-08
 -5.546155e-08
 -3.813994e-08
 -3.106580e-08
 -3.682750e-08
 -5.044704e-08
 -5.170330e-08
 -8.557444e-08
 1.738073e-05
 -6.333164e-08
 -1.705763e-08
 -1.408959e-08
 0.000000e+00
 0.000000e+00
 -1.080118e-07
 -1.785902e-07
 -1.651958e-07
 -1.061222e-07
 -5.041268e-08
 -9.754967e-09
 1.810201e-08
 3.592509e-08
 4.529518e-08
 4.739137e-08
 4.393175e-08
 3.731707e-08
 2.982191e-08
 2.273885e-08
 1.650825e-08
 1.192383e-08
 1.174985e-08
 2.146085e-08
 4.678902e-08
 8.803203e-08
 1.386340e-07
 1.919386e-07
 2.389858e-07
 2.490638e-07
 2.030722e-07
 1.931605e-07
 2.248044e-07
 1.376903e-08
 -2.261733e-07
 -1.546148e-07
 -1.084733e-08
 2.809573e-08
 -4.584395e-08
 -1.431280e-07
 -1.672609e-07
 -1.398333e-07
 -1.065970e-07
 -7.919464e-08
 -5.641650e-08
 -3.667115e-08
 -1.807733e-08
 6.091370e-09
 5.907709e-08
 2.212344e-07
 8.606951e-07
 -4.588620e-08
 -1.355906e-06
 -2.753836e-07
 -8.820257e-08
 0.000000e+00
 0.000000e+00
 -5.888523e-08
 -9.597899e-08
 -9.790010e-08
 -7.394919e-08
 -4.232907e-08
 -1.382104e-08
 8.272515e-09
 2.365555e-08
 3.280575e-08
 3.647611e-08
 3.571444e-08
 3.174730e-08
 2.558848e-08
 1.766464e-08
 7.901380e-09
 -3.295708e-09
 -1.245419e-08
 -8.925443e-09
 2.320480e-08
 8.532233e-08
 1.507139e-07
 1.932817e-07
 2.093121e-07
 2.015389e-07
 1.769119e-07
 1.518947e-07
 1.123332e-07
 2.087304e-08
 -6.518137e-08
 -7.124224e-08
 -3.664708e-08
 -2.520709e-08
 -5.269126e-08
 -9.202904e-08
 -1.115396e-07
 -1.076737e-07
 -9.242586e-08
 -7.391661e-08
 -5.438581e-08
 -3.338912e-08
 -8.418304e-09
 2.706558e-08
 8.680718e-08
 1.882635e-07
 2.485725e-07
 9.896751e-09
 -2.657033e-07
 -2.238059e-07
 -9.132383e-08
 0.000000e+00
 0.000000e+00
 -3.237543e-08
 -5.364962e-08
 -5.789621e-08
 -4.755921e-08
 -2.983685e-08
 -1.106599e-08
 5.236759e-09
 1.765305e-08
 2.585136e-08
 3.003262e-08
 3.066727e-08
 2.825799e-08
 2.301315e-08
 1.446766e-08
 1.163945e-09
 -1.926724e-08
 -4.775133e-08
 -7.031063e-08
 -3.689975e-08
 7.976910e-08
 1.910439e-07
 2.214115e-07
 2.034662e-07
 1.747373e-07
 1.451541e-07
 1.146368e-07
 7.669298e-08
 2.803785e-08
 -1.369821e-08
 -2.985661e-08
 -2.892660e-08
 -3.167291e-08
 -4.686187e-08
 -6.735210e-08
 -8.176989e-08
 -8.554540e-08
 -8.046888e-08
 -6.931916e-08
 -5.354791e-08
 -3.345068e-08
 -8.036926e-09
 2.541557e-08
 6.876540e-08
 1.107161e-07
 1.074113e-07
 2.032008e-08
 -7.681090e-08
 -9.327733e-08
 -5.244550e-08
 0.000000e+00
 0.000000e+00
 -1.784517e-08
 -3.000947e-08
 -3.332163e-08
 -2.826424e-08
 -1.784742e-08
 -5.495861e-09
 6.252245e-09
 1.594922e-08
 2.295905e-08
 2.714439e-08
 2.861664e-08
 2.749073e-08
 2.356653e-08
 1.583778e-08
 1.578656e-09
 -2.564961e-08
 -8.023984e-08
 -1.880682e-07
 -2.101445e-07
 8.360132e-08
 3.393368e-07
 2.937467e-07
 2.027142e-07
 1.480565e-07
 1.129436e-07
 8.467443e-08
 5.688181e-08
 2.885881e-08
 5.816872e-09
 -7.720705e-09
 -1.476964e-08
 -2.257694e-08
 -3.506023e-08
 -5.031842e-08
 -6.383391e-08
 -7.229235e-08
 -7.428945e-08
 -6.917550e-08
 -5.684645e-08
 -3.846850e-08
 -1.559327e-08
 1.224026e-08
 4.537855e-08
 7.446902e-08
 7.792765e-08
 4.545041e-08
 1.814713e-09
 -2.037608e-08
 -1.658086e-08
 0.000000e+00
 0.000000e+00
 -9.451506e-09
 -1.590821e-08
 -1.756769e-08
 -1.436516e-08
 -7.610366e-09
 8.711663e-10
 9.453233e-09
 1.701327e-08
 2.293256e-08
 2.697188e-08
 2.911589e-08
 2.939731e-08
 2.766431e-08
 2.318365e-08
 1.372829e-08
 -7.132552e-09
 -5.988928e-08
 -2.226527e-07
 -1.283433e-06
 4.283553e-08
 9.607943e-07
 3.259741e-07
 1.618822e-07
 1.035550e-07
 7.482705e-08
 5.509505e-08
 3.858547e-08
 2.461984e-08
 1.417039e-08
 7.095237e-09
 8.969073e-10
 -7.649239e-09
 -2.003912e-08
 -3.534500e-08
 -5.133260e-08
 -6.558273e-08
 -7.526972e-08
 -7.651586e-08
 -6.633979e-08
 -4.751653e-08
 -2.781760e-08
 -7.982672e-09
 2.302162e-08
 6.543675e-08
 9.234577e-08
 8.337419e-08
 5.231546e-08
 2.356179e-08
 7.346152e-09
 0.000000e+00
 0.000000e+00
 -4.271029e-09
 -6.922992e-09
 -6.919784e-09
 -4.097913e-09
 9.465377e-10
 7.230200e-09
 1.376314e-08
 1.978181e-08
 2.482375e-08
 2.870402e-08
 3.145068e-08
 3.323262e-08
 3.429819e-08
 3.494243e-08
 3.553846e-08
 3.676224e-08
 4.066514e-08
 5.660971e-08
 2.912176e-08
 1.748922e-05
 3.097957e-08
 5.947656e-08
 4.285307e-08
 3.597940e-08
 2.960856e-08
 2.302168e-08
 1.803237e-08
 1.663829e-08
 1.865382e-08
 2.088834e-08
 1.926397e-08
 1.158614e-08
 -1.886804e-09
 -1.970805e-08
 -4.052633e-08
 -6.318132e-08
 -8.470082e-08
 -9.638985e-08
 -8.578100e-08
 -5.612267e-08
 -3.711559e-08
 -4.116893e-08
 -1.742450e-08
 7.325950e-08
 1.504697e-07
 1.449033e-07
 9.721192e-08
 5.248106e-08
 2.172359e-08
 0.000000e+00
 0.000000e+00
 -8.158554e-10
 -7.509486e-10
 7.751070e-10
 3.882567e-09
 8.268024e-09
 1.338239e-08
 1.864016e-08
 2.357433e-08
 2.791225e-08
 3.159293e-08
 3.476269e-08
 3.779055e-08
 4.136251e-08
 4.678485e-08
 5.687277e-08
 7.871035e-08
 1.334075e-07
 2.968169e-07
 9.329709e-07
 1.727865e-08
 -1.306697e-06
 -2.443575e-07
 -8.157836e-08
 -3.114959e-08
 -1.501116e-08
 -1.059716e-08
 -6.523001e-09
 4.639954e-09
 2.274906e-08
 3.893701e-08
 4.415030e-08
 3.680975e-08
 2.056390e-08
 -1.163038e-09
 -2.766848e-08
 -6.087406e-08
 -1.026200e-07
 -1.412004e-07
 -1.307751e-07
 -5.187735e-08
 -8.359071e-09
 -1.010621e-07
 -1.558840e-07
 9.820540e-08
 3.189573e-07
 2.445136e-07
 1.321707e-07
 6.530653e-08
 2.657365e-08
 0.000000e+00
 0.000000e+00
 1.704143e-09
 3.877221e-09
 6.813774e-09
 1.054339e-08
 1.485636e-08
 1.941336e-08
 2.387488e-08
 2.799896e-08
 3.169205e-08
 3.502797e-08
 3.826449e-08
 4.189459e-08
 4.678808e-08
 5.453391e-08
 6.822583e-08
 9.417888e-08
 1.448918e-07
 2.362627e-07
 2.846565e-07
 3.249210e-08
 -2.578138e-07
 -2.328199e-07
 -1.233605e-07
 -7.014513e-08
 -4.907193e-08
 -4.423874e-08
 -3.950735e-08
 -1.615252e-08
 2.877293e-08
 6.959226e-08
 8.252958e-08
 7.077799e-08
 4.797497e-08
 2.168241e-08
 -8.301748e-09
 -4.870186e-08
 -1.152657e-07
 -2.359619e-07
 -2.752732e-07
 -1.050060e-08
 1.836527e-07
 -3.377972e-08
 -1.193588e-06
 7.281808e-08
 9.547140e-07
 2.965543e-07
 1.175340e-07
 5.121109e-08
 1.991512e-08
 0.000000e+00
 0.000000e+00
 3.723537e-09
 7.694193e-09
 1.201699e-08
 1.659882e-08
 2.120171e-08
 2.555751e-08
 2.947270e-08
 3.288258e-08
 3.585878e-08
 3.859930e-08
 4.143052e-08
 4.484399e-08
 4.958759e-08
 5.682772e-08
 6.834945e-08
 8.645363e-08
 1.118215e-07
 1.331723e-07
 1.089043e-07
 3.341438e-09
 -1.085203e-07
 -1.370238e-07
 -1.093787e-07
 -7.899071e-08
 -6.664351e-08
 -7.654682e-08
 -9.370417e-08
 -6.516914e-08
 3.948209e-08
 1.343672e-07
 1.470370e-07
 1.142474e-07
 7.756170e-08
 4.726122e-08
 2.010555e-08
 -1.292957e-08
 -7.436991e-08
 -2.436964e-07
 -1.309730e-06
 1.251472e-08
 9.294515e-07
 3.062298e-07
 1.116003e-07
 1.751252e-05
 2.762520e-08
 4.189116e-08
 1.772144e-08
 8.338446e-09
 3.379594e-09
 0.000000e+00
 0.000000e+00
 5.469398e-09
 1.112259e-08
 1.693521e-08
 2.262859e-08
 2.780824e-08
 3.216513e-08
 3.559907e-08
 3.822053e-08
 4.028161e-08
 4.210596e-08
 4.405494e-08
 4.653104e-08
 4.999738e-08
 5.496352e-08
 6.180529e-08
 7.006283e-08
 7.649880e-08
 7.186024e-08
 4.200450e-08
 -1.522801e-08
 -7.261069e-08
 -9.842306e-08
 -9.012385e-08
 -6.819028e-08
 -5.982751e-08
 -9.254824e-08
 -1.939910e-07
 -2.202865e-07
 6.398717e-08
 3.086561e-07
 2.529838e-07
 1.552021e-07
 9.914494e-08
 6.905743e-08
 5.277786e-08
 4.484197e-08
 4.469516e-08
 6.120988e-08
 4.065702e-08
 1.752051e-05
 1.156712e-07
 3.071944e-07
 9.276617e-07
 7.822187e-09
 -1.317901e-06
 -2.562441e-07
 -9.248433e-08
 -3.820959e-08
 -1.460597e-08
 0.000000e+00
 0.000000e+00
 6.991509e-09
 1.434323e-08
 2.195158e-08
 2.918906e-08
 3.527620e-08
 3.973284e-08
 4.256134e-08
 4.412963e-08
 4.494634e-08
 4.549432e-08
 4.616294e-08
 4.723927e-08
 4.889747e-08
 5.111808e-08
 5.344207e-08
 5.443481e-08
 5.087344e-08
 3.744293e-08
 9.131343e-09
 -3.253826e-08
 -7.486339e-08
 -9.785414e-08
 -8.524873e-08
 -4.364532e-08
 -1.218502e-08
 -3.909916e-08
 -2.005738e-07
 -1.270555e-06
 4.530988e-08
 9.551207e-07
 3.154574e-07
 1.505309e-07
 9.635661e-08
 7.814798e-08
 7.779668e-08
 9.587112e-08
 1.516488e-07
 3.213349e-07
 9.713527e-07
 8.295410e-08
 -1.188079e-06
 -3.124423e-08
 1.843071e-07
 -1.129782e-08
 -2.776771e-07
 -2.405682e-07
 -1.229693e-07
 -6.054178e-08
 -2.514900e-08
 0.000000e+00
 0.000000e+00
 8.062831e-09
 1.720576e-08
 2.731139e-08
 3.695909e-08
 4.446456e-08
 4.899233e-08
 5.080494e-08