<VTKFile type="UnstructuredGrid"  version="0.1"   >
<UnstructuredGrid>  
<Piece  NumberOfPoints="     2601"  NumberOfCells="     5000">  
<Points>  
<DataArray  type="Float64"  NumberOfComponents="3"  format="ascii">  
 0.000000 0.000000 0.000000 
 0.020000 0.000000 0.000000 
 0.040000 0.000000 0.000000 
 0.060000 0.000000 0.000000 
 0.080000 0.000000 0.000000 
 0.100000 0.000000 0.000000 
 0.120000 0.000000 0.000000 
 0.140000 0.000000 0.000000 
 0.160000 0.000000 0.000000 
 0.180000 0.000000 0.000000 
 0.200000 0.000000 0.000000 
 0.220000 0.000000 0.000000 
 0.240000 0.000000 0.000000 
 0.260000 0.000000 0.000000 
 0.280000 0.000000 0.000000 
 0.300000 0.000000 0.000000 
 0.320000 0.000000 0.000000 
 0.340000 0.000000 0.000000 
 0.360000 0.000000 0.000000 
 0.380000 0.000000 0.000000 
 0.400000 0.000000 0.000000 
 0.420000 0.000000 0.000000 
 0.440000 0.000000 0.000000 
 0.460000 0.000000 0.000000 
 0.480000 0.000000 0.000000 
 0.500000 0.000000 0.000000 
 0.520000 0.000000 0.000000 
 0.540000 0.000000 0.000000 
 0.560000 0.000000 0.000000 
 0.580000 0.000000 0.000000 
 0.600000 0.000000 0.000000 
 0.620000 0.000000 0.000000 
 0.640000 0.000000 0.000000 
 0.660000 0.000000 0.000000 
 0.680000 0.000000 0.000000 
 0.700000 0.000000 0.000000 
 0.720000 0.000000 0.000000 
 0.740000 0.000000 0.000000 
 0.760000 0.000000 0.000000 
 0.780000 0.000000 0.000000 
 0.800000 0.000000 0.000000 
 0.820000 0.000000 0.000000 
 0.840000 0.000000 0.000000 
 0.860000 0.000000 0.000000 
 0.880000 0.000000 0.000000 
 0.900000 0.000000 0.000000 
 0.920000 0.000000 0.000000 
 0.940000 0.000000 0.000000 
 0.960000 0.000000 0.000000 
 0.980000 0.000000 0.000000 
 1.000000 0.000000 0.000000 
 0.000000 0.020000 0.000000 
 0.020000 0.020000 0.000000 
 0.040000 0.020000 0.000000 
 0.060000 0.020000 0.000000 
 0.080000 0.020000 0.000000 
 0.100000 0.020000 0.000000 
 0.120000 0.020000 0.000000 
 0.140000 0.020000 0.000000 
 0.160000 0.020000 0.000000 
 0.180000 0.020000 0.000000 
 0.200000 0.020000 0.000000 
 0.220000 0.020000 0.000000 
 0.240000 0.020000 0.000000 
 0.260000 0.020000 0.000000 
 0.280000 0.020000 0.000000 
 0.300000 0.020000 0.000000 
 0.320000 0.020000 0.000000 
 0.340000 0.020000 0.000000 
 0.360000 0.020000 0.000000 
 0.380000 0.020000 0.000000 
 0.400000 0.020000 0.000000 
 0.420000 0.020000 0.000000 
 0.440000 0.020000 0.000000 
 0.460000 0.020000 0.000000 
 0.480000 0.020000 0.000000 
 0.500000 0.020000 0.000000 
 0.520000 0.020000 0.000000 
 0.540000 0.020000 0.000000 
 0.560000 0.020000 0.000000 
 0.580000 0.020000 0.000000 
 0.600000 0.020000 0.000000 
 0.620000 0.020000 0.000000 
 0.640000 0.020000 0.000000 
 0.660000 0.020000 0.000000 
 0.680000 0.020000 0.000000 
 0.700000 0.020000 0.000000 
 0.720000 0.020000 0.000000 
 0.740000 0.020000 0.000000 
 0.760000 0.020000 0.000000 
 0.780000 0.020000 0.000000 
 0.800000 0.020000 0.000000 
 0.820000 0.020000 0.000000 
 0.840000 0.020000 0.000000 
 0.860000 0.020000 0.000000 
 0.880000 0.020000 0.000000 
 0.900000 0.020000 0.000000 
 0.920000 0.020000 0.000000 
 0.940000 0.020000 0.000000 
 0.960000 0.020000 0.000000 
 0.980000 0.020000 0.000000 
 1.000000 0.020000 0.000000 
 0.000000 0.040000 0.000000 
 0.020000 0.040000 0.000000 
 0.040000 0.040000 0.000000 
 0.060000 0.040000 0.000000 
 0.080000 0.040000 0.000000 
 0.100000 0.040000 0.000000 
 0.120000 0.040000 0.000000 
 0.140000 0.040000 0.000000 
 0.160000 0.040000 0.000000 
 0.180000 0.040000 0.000000 
 0.200000 0.040000 0.000000 
 0.220000 0.040000 0.000000 
 0.240000 0.040000 0.000000 
 0.260000 0.040000 0.000000 
 0.280000 0.040000 0.000000 
 0.300000 0.040000 0.000000 
 0.320000 0.040000 0.000000 
 0.340000 0.040000 0.000000 
 0.360000 0.040000 0.000000 
 0.380000 0.040000 0.000000 
 0.400000 0.040000 0.000000 
 0.420000 0.040000 0.000000 
 0.440000 0.040000 0.000000 
 0.460000 0.040000 0.000000 
 0.480000 0.040000 0.000000 
 0.500000 0.040000 0.000000 
 0.520000 0.040000 0.000000 
 0.540000 0.040000 0.000000 
 0.560000 0.040000 0.000000 
 0.580000 0.040000 0.000000 
 0.600000 0.040000 0.000000 
 0.620000 0.040000 0.000000 
 0.640000 0.040000 0.000000 
 0.660000 0.040000 0.000000 
 0.680000 0.040000 0.000000 
 0.700000 0.040000 0.000000 
 0.720000 0.040000 0.000000 
 0.740000 0.040000 0.000000 
 0.760000 0.040000 0.000000 
 0.780000 0.040000 0.000000 
 0.800000 0.040000 0.000000 
 0.820000 0.040000 0.000000 
 0.840000 0.040000 0.000000 
 0.860000 0.040000 0.000000 
 0.880000 0.040000 0.000000 
 0.900000 0.040000 0.000000 
 0.920000 0.040000 0.000000 
 0.940000 0.040000 0.000000 
 0.960000 0.040000 0.000000 
 0.980000 0.040000 0.000000 
 1.000000 0.040000 0.000000 
 0.000000 0.060000 0.000000 
 0.020000 0.060000 0.000000 
 0.040000 0.060000 0.000000 
 0.060000 0.060000 0.000000 
 0.080000 0.060000 0.000000 
 0.100000 0.060000 0.000000 
 0.120000 0.060000 0.000000 
 0.140000 0.060000 0.000000 
 0.160000 0.060000 0.000000 
 0.180000 0.060000 0.000000 
 0.200000 0.060000 0.000000 
 0.220000 0.060000 0.000000 
 0.240000 0.060000 0.000000 
 0.260000 0.060000 0.000000 
 0.280000 0.060000 0.000000 
 0.300000 0.060000 0.000000 
 0.320000 0.060000 0.000000 
 0.340000 0.060000 0.000000 
 0.360000 0.060000 0.000000 
 0.380000 0.060000 0.000000 
 0.400000 0.060000 0.000000 
 0.420000 0.060000 0.000000 
 0.440000 0.060000 0.000000 
 0.460000 0.060000 0.000000 
 0.480000 0.060000 0.000000 
 0.500000 0.060000 0.000000 
 0.520000 0.060000 0.000000 
 0.540000 0.060000 0.000000 
 0.560000 0.060000 0.000000 
 0.580000 0.060000 0.000000 
 0.600000 0.060000 0.000000 
 0.620000 0.060000 0.000000 
 0.640000 0.060000 0.000000 
 0.660000 0.060000 0.000000 
 0.680000 0.060000 0.000000 
 0.700000 0.060000 0.000000 
 0.720000 0.060000 0.000000 
 0.740000 0.060000 0.000000 
 0.760000 0.060000 0.000000 
 0.780000 0.060000 0.000000 
 0.800000 0.060000 0.000000 
 0.820000 0.060000 0.000000 
 0.840000 0.060000 0.000000 
 0.860000 0.060000 0.000000 
 0.880000 0.060000 0.000000 
 0.900000 0.060000 0.000000 
 0.920000 0.060000 0.000000 
 0.940000 0.060000 0.000000 
 0.960000 0.060000 0.000000 
 0.980000 0.060000 0.000000 
 1.000000 0.060000 0.000000 
 0.000000 0.080000 0.000000 
 0.020000 0.080000 0.000000 
 0.040000 0.080000 0.000000 
 0.060000 0.080000 0.000000 
 0.080000 0.080000 0.000000 
 0.100000 0.080000 0.000000 
 0.120000 0.080000 0.000000 
 0.140000 0.080000 0.000000 
 0.160000 0.080000 0.000000 
 0.180000 0.080000 0.000000 
 0.200000 0.080000 0.000000 
 0.220000 0.080000 0.000000 
 0.240000 0.080000 0.000000 
 0.260000 0.080000 0.000000 
 0.280000 0.080000 0.000000 
 0.300000 0.080000 0.000000 
 0.320000 0.080000 0.000000 
 0.340000 0.080000 0.000000 
 0.360000 0.080000 0.000000 
 0.380000 0.080000 0.000000 
 0.400000 0.080000 0.000000 
 0.420000 0.080000 0.000000 
 0.440000 0.080000 0.000000 
 0.460000 0.080000 0.000000 
 0.480000 0.080000 0.000000 
 0.500000 0.080000 0.000000 
 0.520000 0.080000 0.000000 
 0.540000 0.080000 0.000000 
 0.560000 0.080000 0.000000 
 0.580000 0.080000 0.000000 
 0.600000 0.080000 0.000000 
 0.620000 0.080000 0.000000 
 0.640000 0.080000 0.000000 
 0.660000 0.080000 0.000000 
 0.680000 0.080000 0.000000 
 0.700000 0.080000 0.000000 
 0.720000 0.080000 0.000000 
 0.740000 0.080000 0.000000 
 0.760000 0.080000 0.000000 
 0.780000 0.080000 0.000000 
 0.800000 0.080000 0.000000 
 0.820000 0.080000 0.000000 
 0.840000 0.080000 0.000000 
 0.860000 0.080000 0.000000 
 0.880000 0.080000 0.000000 
 0.900000 0.080000 0.000000 
 0.920000 0.080000 0.000000 
 0.940000 0.080000 0.000000 
 0.960000 0.080000 0.000000 
 0.980000 0.080000 0.000000 
 1.000000 0.080000 0.000000 
 0.000000 0.100000 0.000000 
 0.020000 0.100000 0.000000 
 0.040000 0.100000 0.000000 
 0.060000 0.100000 0.000000 
 0.080000 0.100000 0.000000 
 0.100000 0.100000 0.000000 
 0.120000 0.100000 0.000000 
 0.140000 0.100000 0.000000 
 0.160000 0.100000 0.000000 
 0.180000 0.100000 0.000000 
 0.200000 0.100000 0.000000 
 0.220000 0.100000 0.000000 
 0.240000 0.100000 0.000000 
 0.260000 0.100000 0.000000 
 0.280000 0.100000 0.000000 
 0.300000 0.100000 0.000000 
 0.320000 0.100000 0.000000 
 0.340000 0.100000 0.000000 
 0.360000 0.100000 0.000000 
 0.380000 0.100000 0.000000 
 0.400000 0.100000 0.000000 
 0.420000 0.100000 0.000000 
 0.440000 0.100000 0.000000 
 0.460000 0.100000 0.000000 
 0.480000 0.100000 0.000000 
 0.500000 0.100000 0.000000 
 0.520000 0.100000 0.000000 
 0.540000 0.100000 0.000000 
 0.560000 0.100000 0.000000 
 0.580000 0.100000 0.000000 
 0.600000 0.100000 0.000000 
 0.620000 0.100000 0.000000 
 0.640000 0.100000 0.000000 
 0.660000 0.100000 0.000000 
 0.680000 0.100000 0.000000 
 0.700000 0.100000 0.000000 
 0.720000 0.100000 0.000000 
 0.740000 0.100000 0.000000 
 0.760000 0.100000 0.000000 
 0.780000 0.100000 0.000000 
 0.800000 0.100000 0.000000 
 0.820000 0.100000 0.000000 
 0.840000 0.100000 0.000000 
 0.860000 0.100000 0.000000 
 0.880000 0.100000 0.000000 
 0.900000 0.100000 0.000000 
 0.920000 0.100000 0.000000 
 0.940000 0.100000 0.000000 
 0.960000 0.100000 0.000000 
 0.980000 0.100000 0.000000 
 1.000000 0.100000 0.000000 
 0.000000 0.120000 0.000000 
 0.020000 0.120000 0.000000 
 0.040000 0.120000 0.000000 
 0.060000 0.120000 0.000000 
 0.080000 0.120000 0.000000 
 0.100000 0.120000 0.000000 
 0.120000 0.120000 0.000000 
 0.140000 0.120000 0.000000 
 0.160000 0.120000 0.000000 
 0.180000 0.120000 0.000000 
 0.200000 0.120000 0.000000 
 0.220000 0.120000 0.000000 
 0.240000 0.120000 0.000000 
 0.260000 0.120000 0.000000 
 0.280000 0.120000 0.000000 
 0.300000 0.120000 0.000000 
 0.320000 0.120000 0.000000 
 0.340000 0.120000 0.000000 
 0.360000 0.120000 0.000000 
 0.380000 0.120000 0.000000 
 0.400000 0.120000 0.000000 
 0.420000 0.120000 0.000000 
 0.440000 0.120000 0.000000 
 0.460000 0.120000 0.000000 
 0.480000 0.120000 0.000000 
 0.500000 0.120000 0.000000 
 0.520000 0.120000 0.000000 
 0.540000 0.120000 0.000000 
 0.560000 0.120000 0.000000 
 0.580000 0.120000 0.000000 
 0.600000 0.120000 0.000000 
[...]
<PointData  Scalars="U"> 
<DataArray  type="Float64"  Name="U"  format="ascii"> 
 0.000000e+00
 0.000000e+00
 0.000000e+00
 0.000000e+00
 0.000000e+00
 0.000000e+00
 0.000000e+00
 0.000000e+00
 0.000000e+00
 0.000000e+00
 0.000000e+00
 0.000000e+00
 0.000000e+00
 0.000000e+00
 0.000000e+00
 0.000000e+00
 0.000000e+00
 0.000000e+00
 0.000000e+00
 0.000000e+00
 0.000000e+00
 0.000000e+00
 0.000000e+00
 0.000000e+00
 0.000000e+00
 0.000000e+00
 0.000000e+00
 0.000000e+00
 0.000000e+00
 0.000000e+00
 0.000000e+00
 0.000000e+00
 0.000000e+00
 0.000000e+00
 0.000000e+00
 0.000000e+00
 0.000000e+00
 0.000000e+00
 0.000000e+00
 0.000000e+00
 0.000000e+00
 0.000000e+00
 0.000000e+00
 0.000000e+00
 0.000000e+00
 0.000000e+00
 0.000000e+00
 0.000000e+00
 0.000000e+00
 0.000000e+00
 0.000000e+00
 0.000000e+00
 -7.291361e-09
 -1.386227e-08
 -1.989711e-08
 -2.669724e-08
 -3.467147e-08
 -3.843079e-08
 -2.668648e-08
 -2.347629e-10
 1.422892e-08
 -7.269788e-09
 -5.093433e-08
 -5.799111e-08
 7.918803e-09
 6.977528e-08
 6.176877e-08
 1.803399e-08
 -3.179869e-08
 -9.966440e-08
 -2.258798e-07
 -2.908435e-07
 -6.790996e-08
 1.140091e-07
 1.340846e-08
 -1.220523e-07
 -2.374585e-07
 -3.932892e-07
 -7.097689e-07
 -1.580639e-06
 -3.737232e-06
 -4.291499e-06
 -4.111443e-06
 -1.444998e-06
 -6.989297e-07
 -5.424669e-06
 -5.482918e-06
 -3.967539e-06
 -3.970508e-06
 -1.393583e-06
 -7.629596e-07
 -4.914604e-07
 -3.402792e-07
 -2.420800e-07
 -1.726869e-07
 -1.219041e-07
 -8.450913e-08
 -5.705555e-08
 -3.686218e-08
 -2.167022e-08
 -9.235742e-09
 0.000000e+00
 0.000000e+00
 -1.546797e-08
 -2.850625e-08
 -3.899861e-08
 -5.120348e-08
 -7.185790e-08
 -9.428215e-08
 -7.419748e-08
 1.200472e-08
 7.131361e-08
 1.733735e-08
 -1.392371e-07
 -2.180319e-07
 2.360454e-08
 2.348531e-07
 1.537385e-07
 3.433140e-08
 -5.026471e-08
 -1.427246e-07
 -3.414108e-07
 -1.447197e-06
 -1.781770e-07
 6.757101e-07
 -2.647473e-08
 -2.694692e-07
 -4.404949e-07
 -6.563561e-07
 -1.010954e-06
 -1.599492e-06
 -2.249189e-06
 -2.326514e-06
 -2.046696e-06
 3.289709e-05
 -2.533454e-06
 -3.429865e-06
 1.248693e-05
 -3.607364e-06
 -2.094538e-06
 -1.813497e-06
 -1.255927e-06
 -8.818121e-07
 -6.330775e-07
 -4.572997e-07
 -3.274600e-07
 -2.306618e-07
 -1.591899e-07
 -1.069228e-07
 -6.874463e-08
 -4.043911e-08
 -1.851171e-08
 0.000000e+00
 0.000000e+00
 -2.644841e-08
 -4.651307e-08
 -5.712038e-08
 -6.599081e-08
 -9.820242e-08
 -1.926011e-07
 -2.177336e-07
 5.410732e-08
 2.663308e-07
 1.400624e-07
 -1.423547e-07
 -1.283610e-06
 -1.299892e-08
 8.636188e-07
 1.974246e-07
 9.829973e-09
 -6.611754e-08
 -1.082559e-07
 -1.323133e-07
 -2.036583e-07
 1.720518e-05
 -3.128599e-07
 -3.558038e-07
 -4.639736e-07
 -5.975478e-07
 -7.872556e-07
 -1.054372e-06
 -1.377947e-06
 -1.613548e-06
 -1.459881e-06
 -2.123245e-07
 -2.058104e-06
 -4.702560e-06
 -2.170896e-06
 -2.977857e-06
 1.329366e-05
 -2.756692e-06
 -2.064391e-06
 -1.546027e-06
 -1.151922e-06
 -8.574279e-07
 -6.288115e-07
 -4.498834e-07
 -3.142774e-07
 -2.148316e-07
 -1.428585e-07
 -9.085947e-08
 -5.297396e-08
 -2.422265e-08
 0.000000e+00
 0.000000e+00
 -4.418725e-08
 -7.578869e-08
 -8.015268e-08
 -6.028840e-08
 -6.154838e-08
 -1.902816e-07
 -1.242419e-06
 7.165878e-08
 9.650731e-07
 3.033884e-07
 1.252914e-07
 1.351845e-08
 1.742428e-05
 -6.854198e-08
 -6.552324e-08
 -9.880683e-08
 -1.086776e-07
 -8.567779e-08
 4.256770e-08
 6.390285e-07
 -3.216176e-07
 -1.698620e-06
 -7.034735e-07
 -6.299030e-07
 -6.981341e-07
 -8.357956e-07
 -1.019243e-06
 -1.214194e-06
 -1.353121e-06
 -1.370215e-06
 -1.458200e-06
 -2.021988e-06
 -2.297922e-06
 -1.921605e-06
 -1.445930e-06
 -2.586676e-06
 -3.692287e-06
 -2.229405e-06
 -1.695919e-06
 -1.323192e-06
 -1.019683e-06
 -7.522773e-07
 -5.284562e-07
 -3.614079e-07
 -2.433038e-07
 -1.591215e-07
 -9.899075e-08
 -5.643449e-08
 -2.540920e-08
 0.000000e+00
 0.000000e+00
 -7.332939e-08
 -1.349660e-07
 -1.355995e-07
 -4.039597e-08
 7.750570e-08
 1.530873e-07
 1.400539e-07
 1.758891e-05
 1.151633e-07
 1.588825e-07
 2.713913e-07
 8.733868e-07
 -6.971214e-08
 -1.416938e-06
 -3.739559e-07
 -2.247887e-07
 -1.768498e-07
 -1.405290e-07
 -7.869624e-08
 -6.556744e-08
 -3.538344e-07
 -6.839632e-07
 -7.136268e-07
 -6.835238e-07
 -7.346620e-07
 -8.362954e-07
 -9.656199e-07
 -1.103431e-06
 -1.235380e-06
 -1.387817e-06
 -1.706977e-06
 -3.012180e-06
 -1.845610e-06
 -9.168716e-07
 -1.579588e-06
 -2.028246e-06
 -2.261498e-06
 -2.043004e-06
 -1.708140e-06
 -1.432006e-06
 -1.154130e-06
 -8.328135e-07
 -5.450480e-07
 -3.587551e-07
 -2.392240e-07
 -1.518450e-07
 -8.952264e-08
 -4.838508e-08
 -2.104908e-08
 0.000000e+00
 0.000000e+00
 -1.050298e-07
 -2.540665e-07
 -3.148149e-07
 -4.052751e-08
 2.842352e-07
 4.996989e-07
 1.140238e-06
 1.940622e-07
 -1.168408e-06
 -1.103470e-07
 1.039771e-07
 1.751140e-07
 -8.038851e-08
 -3.823468e-07
 -3.722206e-07
 -2.782097e-07
 -2.380628e-07
 -2.260687e-07
 -2.372365e-07
 -2.981460e-07
 -4.284701e-07
 -5.538092e-07
 -6.128074e-07
 -6.551314e-07
 -7.227691e-07
 -8.095189e-07
 -9.033775e-07
 -1.003501e-06
 -1.118096e-06
 -1.269828e-06
 -1.497325e-06
 -1.722093e-06
 1.586319e-05
 -1.458054e-06
 -1.570680e-06
 -1.778511e-06
 -1.864267e-06
 -1.790817e-06
 -1.648161e-06
 -1.543025e-06
 -1.362407e-06
 -8.764604e-07
 -4.340621e-07
 -2.944667e-07
 -2.086943e-07
 -1.190913e-07
 -5.807313e-08
 -2.662965e-08
 -1.068508e-08
 0.000000e+00
 0.000000e+00
 -9.156251e-08
 -2.897971e-07
 -1.402408e-06
 -1.674006e-07
 7.701230e-07
 5.122122e-07
 6.472076e-07
 2.931161e-07
 -1.032771e-07
 -1.248136e-07
 -3.543543e-08
 -3.080588e-08
 -1.286410e-07
 -2.444030e-07
 -2.854960e-07
 -2.782488e-07
 -2.746087e-07
 -2.947426e-07
 -3.489364e-07
 -4.365013e-07
 -5.103516e-07
 -5.188059e-07
 -5.221851e-07
 -5.908453e-07
 -6.923714e-07
 -7.779839e-07
 -8.360205e-07
 -8.911972e-07
 -9.686026e-07
 -1.070225e-06
 -1.191745e-06
 -1.747031e-06
 -1.457489e-06
 -1.960433e-06
 -1.605888e-06
 -1.653213e-06
 -1.657620e-06
 -1.607096e-06
 -1.538974e-06
 -1.557293e-06
 -2.459790e-06
 -9.590812e-07
 1.498832e-07
 -2.662245e-07
 -1.840018e-07
 -4.992576e-08
 5.075106e-09
 9.367235e-09
 4.007781e-09
 0.000000e+00
 0.000000e+00
 -3.097575e-10
 3.362994e-09
 -6.375924e-08
 1.725283e-05
 -1.240427e-06
 1.359745e-07
 1.014848e-06
 2.727629e-07
 -7.094524e-10
 -8.542656e-08
 -9.318759e-08
 -1.087287e-07
 -1.557540e-07
 -2.114536e-07
 -2.479466e-07
 -2.666348e-07
 -2.869492e-07
 -3.292467e-07
 -4.171624e-07
 -5.826951e-07
 -6.866398e-07
 -4.907135e-07
 -3.399621e-07
 -4.943649e-07
 -6.851557e-07
 -7.813966e-07
 -7.711464e-07
 -7.511726e-07
 -7.941355e-07
 -8.529380e-07
 -8.624843e-07
 -9.484453e-07
 1.616842e-05
 -1.651102e-06
 -1.646125e-06
 -1.574964e-06
 -1.515252e-06
 -1.448799e-06
 -1.369401e-06
 -1.269041e-06
 -1.189237e-06
 1.643148e-05
 -8.430241e-07
 -5.866504e-07
 -1.777678e-07
 1.306221e-07
 1.156038e-07
 4.871255e-08
 1.583603e-08
 0.000000e+00
 0.000000e+00
 8.949837e-08
 2.784065e-07
 9.402365e-07
 6.083722e-08
 -1.274946e-06
 1.724988e-05
 -6.892967e-08
 -3.964859e-08
 -9.016613e-08
 -1.184151e-07
 -1.311492e-07
 -1.467577e-07
 -1.733283e-07
 -2.045067e-07
 -2.311647e-07
 -2.527764e-07
 -2.777426e-07
 -3.202848e-07
 -4.070900e-07
 -6.198467e-07
 -1.746923e-06
 -5.015763e-07
 3.197928e-07
 -4.381314e-07
 -7.761566e-07
 -9.189950e-07
 -7.102600e-07
 -5.193531e-07
 -6.052403e-07
 -6.901215e-07
 -6.253081e-07
 -1.018972e-07
 -1.189047e-06
 -2.671295e-06
 -1.665211e-06
 -1.482226e-06
 -1.383296e-06
 -1.303797e-06
 -1.213900e-06
 -1.036974e-06
 -3.898667e-07
 -1.149178e-06
 -2.108613e-06
 -1.697052e-06
 -1.540040e-07
 8.006477e-07
 1.911414e-07
 4.978149e-08
 1.167265e-08
 0.000000e+00
 0.000000e+00
 1.054747e-07
 2.523186e-07
 3.850587e-07
 3.207079e-07
 6.805448e-07
 -2.117696e-07
 -1.445424e-06
 -3.608341e-07
 -2.063514e-07
 -1.693265e-07
 -1.637808e-07
 -1.709370e-07
 -1.858580e-07
 -2.039424e-07
 -2.210195e-07
 -2.362668e-07
 -2.523777e-07
 -2.731508e-07
 -3.002858e-07
 -3.263892e-07
 -4.071222e-07
 1.698874e-05
 -5.480593e-07
 -6.302247e-07
 -8.656375e-07
 -1.985467e-06
 -7.115058e-07
 1.635034e-07
 -4.975959e-07
 -6.593745e-07
 -6.767717e-07
 -7.203043e-07
 -1.068019e-06
 -1.436586e-06
 -1.445719e-06
 -1.326779e-06
 -1.236417e-06
 -1.164622e-06
 -1.112392e-06
 -1.105291e-06
 -1.156050e-06
 -2.062054e-06
 -6.123617e-07
 4.181046e-07
 1.741677e-05
 -7.922385e-08
 -2.913025e-08
 -2.489429e-08
 -1.320885e-08
 0.000000e+00
 0.000000e+00
 7.601345e-08
 1.597654e-07
 2.258026e-07
 2.459027e-07
 2.003590e-07
 -8.312363e-08
 -3.660375e-07
 -3.386255e-07
 -2.380195e-07
 -1.969531e-07
 -1.851944e-07
 -1.870611e-07
 -1.952375e-07
 -2.050530e-07
 -2.133693e-07
 -2.190805e-07
 -2.220432e-07
 -2.185990e-07
 -1.899506e-07
 -6.066262e-08
 5.345156e-07
 -4.268044e-07
 -1.798307e-06
 -7.813481e-07
 -6.504502e-07
 -6.717492e-07
 1.676574e-05
 -7.207637e-07
 -7.166353e-07
 -7.506930e-07
 -7.795782e-07
 -8.544621e-07
 -1.007554e-06
 -1.152088e-06
 -1.188089e-06
 -1.142108e-06
 -1.073100e-06
 -1.009018e-06
 -9.756467e-07
 -1.060208e-06
 -2.063909e-06
 -7.234969e-07
 1.788566e-05
 6.234412e-07
 -1.841490e-07
 -1.394508e-06
 -2.792586e-07
 -1.029181e-07
 -3.953848e-08
 0.000000e+00
 0.000000e+00
 3.169753e-08
 8.019991e-08
 1.357392e-07
 1.569615e-07
 1.013861e-07
 -3.755909e-08
 -1.722846e-07
 -2.194245e-07
 -2.111871e-07
 -1.983369e-07
 -1.942340e-07
 -1.971714e-07
 -2.031890e-07
 -2.080546e-07
 -2.085780e-07
 -2.041982e-07
 -1.961239e-07
 -1.825240e-07
 -1.525186e-07
 -8.868430e-08
 -7.129154e-08
 -3.531665e-07
 -6.634138e-07
 -6.263303e-07
 -3.952669e-07
 2.556910e-07
 -6.713097e-07
 -2.017544e-06
 -9.817977e-07
 -8.492231e-07
 -8.384495e-07
 -8.811573e-07
 -9.516293e-07
 -1.008230e-06
 -1.014570e-06
 -9.722465e-07
 -9.045964e-07
 -8.297910e-07
 -7.543236e-07
 -6.694633e-07
 -5.908207e-07
 1.751426e-05
 -5.398568e-07
 -1.481381e-06
 -3.486600e-07
 -2.286612e-07
 -1.773012e-07
 -1.036303e-07
 -4.943432e-08
 0.000000e+00
 0.000000e+00
 -3.436154e-08
 -1.322208e-08
 8.062363e-08
 1.479866e-07
 1.083865e-07
 4.365422e-09
 -9.526339e-08
 -1.551700e-07
 -1.801010e-07
 -1.894659e-07
 -1.960624e-07
 -2.041393e-07
 -2.124402e-07
 -2.159111e-07
 -2.091205e-07
 -1.925460e-07
 -1.741184e-07
 -1.607167e-07
 -1.525356e-07
 -1.556149e-07
 -2.053650e-07
 -3.319476e-07
 -4.536777e-07
 -4.689152e-07
 -3.883948e-07
 -3.453882e-07
 -6.115558e-07
 -9.242956e-07
 -9.291069e-07
 -8.568300e-07
 -8.480599e-07
 -8.749304e-07
 -9.100695e-07
 -9.230646e-07
 -8.934684e-07
 -8.260110e-07
 -7.411299e-07
 -6.497228e-07
 -5.353000e-07
 -3.267197e-07
 2.805445e-07
 -1.618380e-06
 -1.926886e-06
 -1.211968e-06
 -3.274072e-07
 5.628952e-07
 -1.878021e-08
 -9.017105e-08
 -5.573055e-08
 0.000000e+00
 0.000000e+00
 -1.580553e-07
 -2.091113e-07
 5.677409e-08
 2.753112e-07
 1.807017e-07
 3.525758e-08
 -6.578131e-08
 -1.280597e-07
 -1.627537e-07
 -1.818919e-07
 -1.955747e-07
 -2.101925e-07
 -2.263213e-07
 -2.351442e-07
 -2.210948e-07
 -1.824935e-07
 -1.453994e-07
 -1.340092e-07
 -1.475433e-07
 -1.799215e-07
 -2.349179e-07
 -3.104410e-07
 -3.787270e-07
 -4.116022e-07
 -4.208771e-07
 -4.638644e-07
 -5.878144e-07
 -7.235007e-07
 -7.848263e-07
 -8.008715e-07
 -8.224816e-07
 -8.591808e-07
 -8.921770e-07
 -8.856168e-07
 -8.133784e-07
 -6.951788e-07
 -5.795798e-07
 -4.857419e-07
 -3.881044e-07
 -2.455213e-07
 -1.221842e-07
 -3.559652e-07
 1.683744e-05
 -5.835796e-07
 1.708873e-05
 -2.851764e-07
 -1.980982e-07
 -1.474356e-07
 -7.628089e-08
 0.000000e+00
 0.000000e+00
 -2.173288e-07
 -1.304678e-06
 -1.101919e-09
 8.891749e-07
 2.197669e-07
 1.761751e-08
 -7.535149e-08
 -1.287711e-07
 -1.605730e-07
 -1.791642e-07
 -1.932671e-07
 -2.130698e-07
 -2.456603e-07
 -2.795563e-07
 -2.641294e-07
 -1.703323e-07
 -8.501299e-08
 -8.185565e-08
 -1.264566e-07
 -1.809868e-07
 -2.378209e-07
 -2.956149e-07
 -3.471272e-07
 -3.866701e-07
 -4.220856e-07
 -4.727809e-07
 -5.478085e-07
 -6.269061e-07
 -6.861723e-07
 -7.298887e-07
 -7.779841e-07
 -8.435975e-07
 -9.147569e-07
 -9.234512e-07
 -7.857565e-07
 -5.549585e-07
 -3.875097e-07
 -3.226624e-07
 -2.906209e-07
 -2.342463e-07
 -8.003165e-08
 5.062229e-07
 -3.053334e-07
 -7.399726e-07
 -3.422240e-07
 -1.516145e-06
 -4.313105e-07
 -2.210651e-07
 -1.004293e-07
 0.000000e+00
 0.000000e+00
 1.578841e-08
 -1.635407e-08
 1.743419e-05
 -4.040897e-08
 -3.577342e-08
 -8.170526e-08
 -1.186674e-07
 -1.501131e-07
 -1.718317e-07
 -1.813118e-07
 -1.849488e-07
 -2.009156e-07
 -2.544086e-07
 -3.735295e-07
 -4.154467e-07
 -1.457005e-07
 8.464061e-08
 1.373015e-08
 -1.018163e-07
 -1.801239e-07
 -2.381676e-07
 -2.871822e-07
 -3.301998e-07
 -3.684712e-07
 -4.064538e-07
 -4.506470e-07
 -5.028516e-07
 -5.567449e-07
 -6.057248e-07
 -6.529454e-07
 -7.128486e-07
 -8.114182e-07
 -9.910821e-07
 -1.137692e-06
 -8.770958e-07
 -3.211063e-07
 -7.091192e-08
 -1.357162e-07
 -2.162976e-07
 -3.001966e-07
 -2.928575e-07
 -1.266894e-07
 -1.159197e-06
 -1.517504e-07
 4.651221e-07
 -3.482459e-07
 -3.841550e-07
 -2.341668e-07
 -1.093998e-07
 0.000000e+00
 0.000000e+00
 2.134723e-07
 8.679546e-07
 -4.182397e-08
 -1.369834e-06
 -3.227275e-07
 -1.854602e-07
 -1.666591e-07
 -1.814181e-07
 -1.969244e-07
 -1.915921e-07
 -1.653246e-07
 -1.518739e-07
 -1.968559e-07
 -3.758271e-07
 -1.462991e-06
 -1.644850e-07
 7.272842e-07
 6.828162e-08
 -1.182128e-07
 -1.975112e-07
 -2.460605e-07
 -2.844897e-07
 -3.187481e-07
 -3.511055e-07
 -3.837466e-07
 -4.187173e-07
 -4.560848e-07
 -4.934870e-07
 -5.289541e-07
 -5.649466e-07
 -6.121625e-07
 -7.004992e-07
 -9.313507e-07
 -2.173221e-06
 -1.929252e-06
 3.049426e-07
 6.391527e-07
 -2.484222e-08
 -1.364889e-07
 -2.921101e-07
 -1.354744e-06
 -5.703569e-08
 7.177900e-07
 1.740412e-05
 -3.188574e-07
 -3.679135e-07
 -3.268277e-07
 -2.157740e-07
 -1.031929e-07
 0.000000e+00
 0.000000e+00
 1.351675e-07
 2.101585e-07
 -2.120124e-08
 -3.009896e-07
 -2.834401e-07
 -2.000796e-07
 -1.866382e-07
 -2.125472e-07
 -2.462502e-07
 -2.301479e-07
 -1.339760e-07
 -4.455317e-08
 -3.354773e-08
 -5.549088e-08
 -1.243370e-07
 1.730196e-05
 -1.834253e-07
 -1.776850e-07
 -2.142328e-07
 -2.390634e-07
 -2.621655e-07
 -2.855036e-07
 -3.092831e-07
 -3.334934e-07
 -3.583364e-07
 -3.838686e-07
 -4.093155e-07
 -4.329506e-07
 -4.529113e-07
 -4.681619e-07
 -4.785524e-07
 -4.833376e-07
 -4.744240e-07
 -5.043293e-07
 1.688869e-05
 1.680484e-05
 -6.163499e-07
 -2.696467e-07
 1.751078e-08
 3.873826e-08
 -6.457752e-09
 1.755377e-05
 6.572940e-07
 -3.002489e-07
 -1.668592e-06
 -5.745091e-07
 -3.302181e-07
 -1.873889e-07
 -8.540200e-08
 0.000000e+00
 0.000000e+00
 2.830446e-08
 2.765445e-08
 -3.508384e-08
 -1.121769e-07
 -1.402135e-07
 -1.452903e-07
 -1.686771e-07
 -2.287436e-07
 -3.464841e-07
 -3.788351e-07
 -9.161066e-08
 1.693261e-07
 1.630140e-07
 2.229641e-07
 7.966727e-07
 -1.566540e-07
 -1.506211e-06
 -4.636968e-07
 -3.175997e-07
 -2.814858e-07
 -2.778129e-07
 -2.860627e-07
 -2.994468e-07
 -3.152366e-07
 -3.320799e-07
 -3.489137e-07
 -3.643298e-07
 -3.762563e-07
 -3.817630e-07
 -3.762177e-07
 -3.498456e-07
 -2.753536e-07
 -5.807747e-08
 7.356413e-07
 4.253575e-07
 -1.946735e-06
 -3.227380e-06
 -6.148811e-07
 6.193660e-07
 2.741743e-07
 8.408303e-07
 -3.522604e-08
 -1.362777e-06
 -6.001133e-07
 -7.119611e-07
 -5.189548e-07
 -2.564905e-07
 -1.208548e-07
 -5.227097e-08
 0.000000e+00
 0.000000e+00
 -5.579655e-08
 -7.217097e-08
 -2.991345e-08
 3.873877e-09
 -1.933108e-08
 -6.612050e-08
 -1.160331e-07
 -1.879735e-07
 -3.632227e-07
 -1.430807e-06
 -1.037219e-07
 8.287891e-07
 2.352106e-07
 1.557231e-07
 1.422798e-07
 -1.390805e-07
 -4.476169e-07
 -4.371789e-07
 -3.406289e-07
 -2.978890e-07
 -2.832290e-07
 -2.820298e-07
 -2.874035e-07
 -2.959654e-07
 -3.057662e-07
 -3.152596e-07
 -3.227047e-07
 -3.257567e-07
 -3.209930e-07
 -3.028785e-07
 -2.613014e-07
 -1.768331e-07
 -2.041958e-08
 1.411741e-07
 -3.084904e-08
 -5.215093e-07
 -7.680779e-07
 1.688957e-05
 -3.116781e-07
 -6.517933e-08
 4.909020e-08
 -1.703790e-07
 -5.168910e-07
 -6.922671e-07
 -7.050622e-07
 -3.679749e-07
 -3.148051e-08
 6.095124e-09
 -9.774599e-09
 0.000000e+00
 0.000000e+00
 -1.786099e-07
 -2.536796e-07
 -1.108940e-08
 1.978144e-07
 1.182926e-07
 9.701344e-09
 -4.799988e-08
 -7.324498e-08
 -7.133098e-08
 -1.039143e-07
 1.735873e-05
 -8.808238e-08
 -3.861262e-08
 -3.565054e-08
 -6.582705e-08
 -1.750173e-07
 -2.915436e-07
 -3.275805e-07
 -3.101314e-07
 -2.886190e-07
 -2.763847e-07
 -2.719464e-07
 -2.723860e-07
 -2.755121e-07
 -2.797221e-07
 -2.835538e-07
 -2.853069e-07
 -2.827585e-07
 -2.728846e-07
 -2.514956e-07
 -2.130457e-07
 -1.525502e-07
 -7.719432e-08
 -3.240584e-08
 -7.447173e-08
 -8.901658e-08
 4.516901e-07
 -4.137439e-07
 -1.618747e-06
 -4.458161e-07
 -2.414497e-07
 -2.666172e-07
 -3.989399e-07
 -6.050793e-07
 -1.663080e-06
 -3.026326e-07
 6.712206e-07
 1.014311e-07
 2.158783e-09
 0.000000e+00
 0.000000e+00
 -2.321078e-07
 -1.333692e-06
 -4.019252e-08
 8.507526e-07
 1.984058e-07
 3.098355e-08
 -9.637745e-09
 1.997058e-08
 1.733287e-07
 8.070696e-07
 -1.059784e-07
 -1.423689e-06
 -3.546909e-07
 -1.935564e-07
 -1.667184e-07
 -1.992012e-07
 -2.456817e-07
 -2.718246e-07
 -2.749674e-07
 -2.685527e-07
 -2.617247e-07
 -2.571462e-07
 -2.547836e-07
 -2.539954e-07
 -2.540135e-07
 -2.538392e-07
 -2.520802e-07
 -2.468926e-07
 -2.360295e-07
 -2.170572e-07
 -1.881241e-07
 -1.502604e-07
 -1.118248e-07
 -8.916520e-08
 -8.639469e-08
 -6.526962e-08
 -5.676788e-08
 -2.918979e-07
 -5.274807e-07
 -4.458989e-07
 -3.078190e-07
 -2.628886e-07
 -2.620965e-07
 -2.505269e-07
 -2.649484e-07
 1.722673e-05
 -1.854130e-07
 -1.013925e-07
 -5.703823e-08
 0.000000e+00
 0.000000e+00
 6.852259e-09
 -3.334400e-08
 1.741297e-05
 -5.707706e-08
 -3.425755e-08
 -4.540745e-08
 -2.861182e-08
 1.882646e-08
 1.102643e-07
 1.610133e-07
 -8.740018e-08
 -3.740893e-07
 -3.484588e-07
 -2.453967e-07
 -2.084036e-07
 -2.103508e-07
 -2.271770e-07
 -2.417006e-07
 -2.479203e-07
 -2.477313e-07
 -2.444475e-07
 -2.400723e-07
 -2.355991e-07
 -2.316340e-07
 -2.284282e-07
 -2.256311e-07
 -2.222118e-07
 -2.166590e-07
 -2.073406e-07
 -1.929768e-07
 -1.733698e-07
 -1.505258e-07
 -1.294993e-07
 -1.165364e-07
 -1.134918e-07
 -1.203414e-07
 -1.590367e-07
 -2.541992e-07
 -3.364306e-07
 -3.306229e-07
 -2.743957e-07
 -2.147927e-07
 -1.376838e-07
 4.471624e-08
 7.054632e-07
 -1.769874e-07
 -1.459070e-06
 -3.466923e-07
 -1.246421e-07
 0.000000e+00
 0.000000e+00
 2.099081e-07
 8.595785e-07
 -5.399384e-08
 -1.378789e-06
 -3.151345e-07
 -1.445782e-07
 -7.592661e-08
 -3.003098e-08
 2.396356e-09
 -1.398203e-08
 -1.132871e-07
 -2.213700e-07
 -2.508253e-07
 -2.305517e-07
 -2.118182e-07
 -2.076254e-07
 -2.131677e-07
 -2.212863e-07
 -2.273618e-07
 -2.296983e-07
 -2.280963e-07
 -2.230538e-07
 -2.158551e-07
 -2.084063e-07
 -2.023119e-07
 -1.979611e-07
 -1.944550e-07
 -1.902427e-07
 -1.838635e-07
 -1.745042e-07
 -1.624323e-07
 -1.493385e-07
 -1.382626e-07
 -1.326240e-07
 -1.351251e-07
 -1.491866e-07
 -1.806022e-07
 -2.267369e-07
 -2.627247e-07
 -2.639677e-07
 -2.316620e-07
 -1.755722e-07
 -9.211601e-08
 3.246834e-08
 1.146024e-07
 -1.022722e-07
 -3.540606e-07
 -2.851867e-07
 -1.228354e-07
 0.000000e+00
 0.000000e+00
 1.389144e-07
 2.101251e-07
 -3.128275e-08
 -3.161572e-07
 -2.870991e-07
 -1.718188e-07
 -1.084456e-07
 -7.346625e-08
 -6.114626e-08
 -7.886671e-08
 -1.263820e-07
 -1.772631e-07
 -2.033001e-07
 -2.050348e-07
 -1.985721e-07
 -1.949696e-07
 -1.971312e-07
 -2.034540e-07
 -2.107605e-07
 -2.156881e-07
 -2.153281e-07
 -2.083240e-07
 -1.963105e-07
 -1.835924e-07
 -1.742155e-07
 -1.693368e-07
 -1.674266e-07
 -1.661044e-07
 -1.635472e-07
 -1.589913e-07
 -1.527713e-07
 -1.462158e-07
 -1.413834e-07
 -1.405934e-07
 -1.460357e-07
 -1.596782e-07
 -1.821791e-07
 -2.092690e-07
 -2.299115e-07
 -2.322158e-07
 -2.097155e-07
 -1.610040e-07
 -9.135082e-08
 -2.268572e-08
 -5.129409e-09
 -7.511557e-08
 -1.537956e-07
 -1.477860e-07
 -8.072846e-08
 0.000000e+00
 0.000000e+00
 4.856885e-08
 4.430242e-08
 -4.803199e-08
 -1.518481e-07
 -1.765739e-07
 -1.480289e-07
 -1.161346e-07
 -9.688829e-08
 -9.361587e-08
 -1.078139e-07
 -1.355309e-07
 -1.646819e-07
 -1.826833e-07
 -1.861713e-07
 -1.809890e-07
 -1.758464e-07
 -1.767172e-07
 -1.846316e-07
 -1.965945e-07
 -2.072013e-07