<VTKFile type="UnstructuredGrid"  version="0.1"   >
<UnstructuredGrid>  
<Piece  NumberOfPoints="     2601"  NumberOfCells="     5000">  
<Points>  
<DataArray  type="Float64"  NumberOfComponents="3"  format="ascii">  
 0.000000 0.000000 0.000000 
 0.020000 0.000000 0.000000 
 0.040000 0.000000 0.000000 
 0.060000 0.000000 0.000000 
 0.080000 0.000000 0.000000 
 0.100000 0.000000 0.000000 
 0.120000 0.000000 0.000000 
 0.140000 0.000000 0.000000 
 0.160000 0.000000 0.000000 
 0.180000 0.000000 0.000000 
 0.200000 0.000000 0.000000 
 0.220000 0.000000 0.000000 
 0.240000 0.000000 0.000000 
 0.260000 0.000000 0.000000 
 0.280000 0.000000 0.000000 
 0.300000 0.000000 0.000000 
 0.320000 0.000000 0.000000 
 0.340000 0.000000 0.000000 
 0.360000 0.000000 0.000000 
 0.380000 0.000000 0.000000 
 0.400000 0.000000 0.000000 
 0.420000 0.000000 0.000000 
 0.440000 0.000000 0.000000 
 0.460000 0.000000 0.000000 
 0.480000 0.000000 0.000000 
 0.500000 0.000000 0.000000 
 0.520000 0.000000 0.000000 
 0.540000 0.000000 0.000000 
 0.560000 0.000000 0.000000 
 0.580000 0.000000 0.000000 
 0.600000 0.000000 0.000000 
 0.620000 0.000000 0.000000 
 0.640000 0.000000 0.000000 
 0.660000 0.000000 0.000000 
 0.680000 0.000000 0.000000 
 0.700000 0.000000 0.000000 
 0.720000 0.000000 0.000000 
 0.740000 0.000000 0.000000 
 0.760000 0.000000 0.000000 
 0.780000 0.000000 0.000000 
 0.800000 0.000000 0.000000 
 0.820000 0.000000 0.000000 
 0.840000 0.000000 0.000000 
 0.860000 0.000000 0.000000 
 0.880000 0.000000 0.000000 
 0.900000 0.000000 0.000000 
 0.920000 0.000000 0.000000 
 0.940000 0.000000 0.000000 
 0.960000 0.000000 0.000000 
 0.980000 0.000000 0.000000 
 1.000000 0.000000 0.000000 
 0.000000 0.020000 0.000000 
 0.020000 0.020000 0.000000 
 0.040000 0.020000 0.000000 
 0.060000 0.020000 0.000000 
 0.080000 0.020000 0.000000 
 0.100000 0.020000 0.000000 
 0.120000 0.020000 0.000000 
 0.140000 0.020000 0.000000 
 0.160000 0.020000 0.000000 
 0.180000 0.020000 0.000000 
 0.200000 0.020000 0.000000 
 0.220000 0.020000 0.000000 
 0.240000 0.020000 0.000000 
 0.260000 0.020000 0.000000 
 0.280000 0.020000 0.000000 
 0.300000 0.020000 0.000000 
 0.320000 0.020000 0.000000 
 0.340000 0.020000 0.000000 
 0.360000 0.020000 0.000000 
 0.380000 0.020000 0.000000 
 0.400000 0.020000 0.000000 
 0.420000 0.020000 0.000000 
 0.440000 0.020000 0.000000 
 0.460000 0.020000 0.000000 
 0.480000 0.020000 0.000000 
 0.500000 0.020000 0.000000 
 0.520000 0.020000 0.000000 
 0.540000 0.020000 0.000000 
 0.560000 0.020000 0.000000 
 0.580000 0.020000 0.000000 
 0.600000 0.020000 0.000000 
 0.620000 0.020000 0.000000 
 0.640000 0.020000 0.000000 
 0.660000 0.020000 0.000000 
 0.680000 0.020000 0.000000 
 0.700000 0.020000 0.000000 
 0.720000 0.020000 0.000000 
 0.740000 0.020000 0.000000 
 0.760000 0.020000 0.000000 
 0.780000 0.020000 0.000000 
 0.800000 0.020000 0.000000 
 0.820000 0.020000 0.000000 
 0.840000 0.020000 0.000000 
 0.860000 0.020000 0.000000 
 0.880000 0.020000 0.000000 
 0.900000 0.020000 0.000000 
 0.920000 0.020000 0.000000 
 0.940000 0.020000 0.000000 
 0.960000 0.020000 0.000000 
 0.980000 0.020000 0.000000 
 1.000000 0.020000 0.000000 
 0.000000 0.040000 0.000000 
 0.020000 0.040000 0.000000 
 0.040000 0.040000 0.000000 
 0.060000 0.040000 0.000000 
 0.080000 0.040000 0.000000 
 0.100000 0.040000 0.000000 
 0.120000 0.040000 0.000000 
 0.140000 0.040000 0.000000 
 0.160000 0.040000 0.000000 
 0.180000 0.040000 0.000000 
 0.200000 0.040000 0.000000 
 0.220000 0.040000 0.000000 
 0.240000 0.040000 0.000000 
 0.260000 0.040000 0.000000 
 0.280000 0.040000 0.000000 
 0.300000 0.040000 0.000000 
 0.320000 0.040000 0.000000 
 0.340000 0.040000 0.000000 
 0.360000 0.040000 0.000000 
 0.380000 0.040000 0.000000 
 0.400000 0.040000 0.000000 
 0.420000 0.040000 0.000000 
 0.440000 0.040000 0.000000 
 0.460000 0.040000 0.000000 
 0.480000 0.040000 0.000000 
 0.500000 0.040000 0.000000 
 0.520000 0.040000 0.000000 
 0.540000 0.040000 0.000000 
 0.560000 0.040000 0.000000 
 0.580000 0.040000 0.000000 
 0.600000 0.040000 0.000000 
 0.620000 0.040000 0.000000 
 0.640000 0.040000 0.000000 
 0.660000 0.040000 0.000000 
 0.680000 0.040000 0.000000 
 0.700000 0.040000 0.000000 
 0.720000 0.040000 0.000000 
 0.740000 0.040000 0.000000 
 0.760000 0.040000 0.000000 
 0.780000 0.040000 0.000000 
 0.800000 0.040000 0.000000 
 0.820000 0.040000 0.000000 
 0.840000 0.040000 0.000000 
 0.860000 0.040000 0.000000 
 0.880000 0.040000 0.000000 
 0.900000 0.040000 0.000000 
 0.920000 0.040000 0.000000 
 0.940000 0.040000 0.000000 
 0.960000 0.040000 0.000000 
 0.980000 0.040000 0.000000 
 1.000000 0.040000 0.000000 
 0.000000 0.060000 0.000000 
 0.020000 0.060000 0.000000 
 0.040000 0.060000 0.000000 
 0.060000 0.060000 0.000000 
 0.080000 0.060000 0.000000 
 0.100000 0.060000 0.000000 
 0.120000 0.060000 0.000000 
 0.140000 0.060000 0.000000 
 0.160000 0.060000 0.000000 
 0.180000 0.060000 0.000000 
 0.200000 0.060000 0.000000 
 0.220000 0.060000 0.000000 
 0.240000 0.060000 0.000000 
 0.260000 0.060000 0.000000 
 0.280000 0.060000 0.000000 
 0.300000 0.060000 0.000000 
 0.320000 0.060000 0.000000 
 0.340000 0.060000 0.000000 
 0.360000 0.060000 0.000000 
 0.380000 0.060000 0.000000 
 0.400000 0.060000 0.000000 
 0.420000 0.060000 0.000000 
 0.440000 0.060000 0.000000 
 0.460000 0.060000 0.000000 
 0.480000 0.060000 0.000000 
 0.500000 0.060000 0.000000 
 0.520000 0.060000 0.000000 
 0.540000 0.060000 0.000000 
 0.560000 0.060000 0.000000 
 0.580000 0.060000 0.000000 
 0.600000 0.060000 0.000000 
 0.620000 0.060000 0.000000 
 0.640000 0.060000 0.000000 
 0.660000 0.060000 0.000000 
 0.680000 0.060000 0.000000 
 0.700000 0.060000 0.000000 
 0.720000 0.060000 0.000000 
 0.740000 0.060000 0.000000 
 0.760000 0.060000 0.000000 
 0.780000 0.060000 0.000000 
 0.800000 0.060000 0.000000 
 0.820000 0.060000 0.000000 
 0.840000 0.060000 0.000000 
 0.860000 0.060000 0.000000 
 0.880000 0.060000 0.000000 
 0.900000 0.060000 0.000000 
 0.920000 0.060000 0.000000 
 0.940000 0.060000 0.000000 
 0.960000 0.060000 0.000000 
 0.980000 0.060000 0.000000 
 1.000000 0.060000 0.000000 
 0.000000 0.080000 0.000000 
 0.020000 0.080000 0.000000 
 0.040000 0.080000 0.000000 
 0.060000 0.080000 0.000000 
 0.080000 0.080000 0.000000 
 0.100000 0.080000 0.000000 
 0.120000 0.080000 0.000000 
 0.140000 0.080000 0.000000 
 0.160000 0.080000 0.000000 
 0.180000 0.080000 0.000000 
 0.200000 0.080000 0.000000 
 0.220000 0.080000 0.000000 
 0.240000 0.080000 0.000000 
 0.260000 0.080000 0.000000 
 0.280000 0.080000 0.000000 
 0.300000 0.080000 0.000000 
 0.320000 0.080000 0.000000 
 0.340000 0.080000 0.000000 
 0.360000 0.080000 0.000000 
 0.380000 0.080000 0.000000 
 0.400000 0.080000 0.000000 
 0.420000 0.080000 0.000000 
 0.440000 0.080000 0.000000 
 0.460000 0.080000 0.000000 
 0.480000 0.080000 0.000000 
 0.500000 0.080000 0.000000 
 0.520000 0.080000 0.000000 
 0.540000 0.080000 0.000000 
 0.560000 0.080000 0.000000 
 0.580000 0.080000 0.000000 
 0.600000 0.080000 0.000000 
 0.620000 0.080000 0.000000 
 0.640000 0.080000 0.000000 
 0.660000 0.080000 0.000000 
 0.680000 0.080000 0.000000 
 0.700000 0.080000 0.000000 
 0.720000 0.080000 0.000000 
 0.740000 0.080000 0.000000 
 0.760000 0.080000 0.000000 
 0.780000 0.080000 0.000000 
 0.800000 0.080000 0.000000 
 0.820000 0.080000 0.000000 
 0.840000 0.080000 0.000000 
 0.860000 0.080000 0.000000 
 0.880000 0.080000 0.000000 
 0.900000 0.080000 0.000000 
 0.920000 0.080000 0.000000 
 0.940000 0.080000 0.000000 
 0.960000 0.080000 0.000000 
 0.980000 0.080000 0.000000 
 1.000000 0.080000 0.000000 
 0.000000 0.100000 0.000000 
 0.020000 0.100000 0.000000 
 0.040000 0.100000 0.000000 
 0.060000 0.100000 0.000000 
 0.080000 0.100000 0.000000 
 0.100000 0.100000 0.000000 
 0.120000 0.100000 0.000000 
 0.140000 0.100000 0.000000 
 0.160000 0.100000 0.000000 
 0.180000 0.100000 0.000000 
 0.200000 0.100000 0.000000 
 0.220000 0.100000 0.000000 
 0.240000 0.100000 0.000000 
 0.260000 0.100000 0.000000 
 0.280000 0.100000 0.000000 
 0.300000 0.100000 0.000000 
 0.320000 0.100000 0.000000 
 0.340000 0.100000 0.000000 
 0.360000 0.100000 0.000000 
 0.380000 0.100000 0.000000 
 0.400000 0.100000 0.000000 
 0.420000 0.100000 0.000000 
 0.440000 0.100000 0.000000 
 0.460000 0.100000 0.000000 
 0.480000 0.100000 0.000000 
 0.500000 0.100000 0.000000 
 0.520000 0.100000 0.000000 
 0.540000 0.100000 0.000000 
 0.560000 0.100000 0.000000 
 0.580000 0.100000 0.000000 
 0.600000 0.100000 0.000000 
 0.620000 0.100000 0.000000 
 0.640000 0.100000 0.000000 
 0.660000 0.100000 0.000000 
 0.680000 0.100000 0.000000 
 0.700000 0.100000 0.000000 
 0.720000 0.100000 0.000000 
 0.740000 0.100000 0.000000 
 0.760000 0.100000 0.000000 
 0.780000 0.100000 0.000000 
 0.800000 0.100000 0.000000 
 0.820000 0.100000 0.000000 
 0.840000 0.100000 0.000000 
 0.860000 0.100000 0.000000 
 0.880000 0.100000 0.000000 
 0.900000 0.100000 0.000000 
 0.920000 0.100000 0.000000 
 0.940000 0.100000 0.000000 
 0.960000 0.100000 0.000000 
 0.980000 0.100000 0.000000 
 1.000000 0.100000 0.000000 
 0.000000 0.120000 0.000000 
 0.020000 0.120000 0.000000 
 0.040000 0.120000 0.000000 
 0.060000 0.120000 0.000000 
 0.080000 0.120000 0.000000 
 0.100000 0.120000 0.000000 
 0.120000 0.120000 0.000000 
 0.140000 0.120000 0.000000 
 0.160000 0.120000 0.000000 
 0.180000 0.120000 0.000000 
 0.200000 0.120000 0.000000 
 0.220000 0.120000 0.000000 
 0.240000 0.120000 0.000000 
 0.260000 0.120000 0.000000 
 0.280000 0.120000 0.000000 
 0.300000 0.120000 0.000000 
 0.320000 0.120000 0.000000 
 0.340000 0.120000 0.000000 
 0.360000 0.120000 0.000000 
 0.380000 0.120000 0.000000 
 0.400000 0.120000 0.000000 
 0.420000 0.120000 0.000000 
 0.440000 0.120000 0.000000 
 0.460000 0.120000 0.000000 
 0.480000 0.120000 0.000000 
 0.500000 0.120000 0.000000 
 0.520000 0.120000 0.000000 
 0.540000 0.120000 0.000000 
 0.560000 0.120000 0.000000 
 0.580000 0.120000 0.000000 
 0.600000 0.120000 0.000000 
[...]
<PointData  Scalars="U"> 
<DataArray  type="Float64"  Name="U"  format="ascii"> 
 0.000000e+00
 0.000000e+00
 0.000000e+00
 0.000000e+00
 0.000000e+00
 0.000000e+00
 0.000000e+00
 0.000000e+00
 0.000000e+00
 0.000000e+00
 0.000000e+00
 0.000000e+00
 0.000000e+00
 0.000000e+00
 0.000000e+00
 0.000000e+00
 0.000000e+00
 0.000000e+00
 0.000000e+00
 0.000000e+00
 0.000000e+00
 0.000000e+00
 0.000000e+00
 0.000000e+00
 0.000000e+00
 0.000000e+00
 0.000000e+00
 0.000000e+00
 0.000000e+00
 0.000000e+00
 0.000000e+00
 0.000000e+00
 0.000000e+00
 0.000000e+00
 0.000000e+00
 0.000000e+00
 0.000000e+00
 0.000000e+00
 0.000000e+00
 0.000000e+00
 0.000000e+00
 0.000000e+00
 0.000000e+00
 0.000000e+00
 0.000000e+00
 0.000000e+00
 0.000000e+00
 0.000000e+00
 0.000000e+00
 0.000000e+00
 0.000000e+00
 0.000000e+00
 2.132262e-08
 3.297789e-08
 3.143608e-08
 2.075784e-08
 8.156230e-09
 -5.396541e-10
 -2.745458e-09
 3.670896e-10
 4.859089e-09
 6.928029e-09
 5.260653e-09
 7.675967e-10
 -5.001800e-09
 -1.086590e-08
 -1.614704e-08
 -2.055128e-08
 -2.433020e-08
 -2.882854e-08
 -3.680523e-08
 -5.122235e-08
 -7.289099e-08
 -1.068054e-07
 -1.874430e-07
 -2.139695e-07
 2.311815e-08
 2.027666e-07
 1.018213e-07
 -1.555941e-08
 -7.773353e-08
 -1.187254e-07
 -1.811875e-07
 -3.338605e-07
 -7.733155e-07
 -2.709435e-06
 -3.563153e-06
 -2.953153e-06
 -1.112432e-06
 -7.177149e-07
 -5.327433e-07
 -1.682889e-07
 1.037225e-07
 7.187882e-08
 4.975821e-09
 -2.007251e-08
 -2.431772e-08
 -2.113782e-08
 -1.587131e-08
 -1.028463e-08
 -4.647429e-09
 0.000000e+00
 0.000000e+00
 5.347661e-08
 8.063439e-08
 7.250890e-08
 4.310862e-08
 1.184426e-08
 -8.233836e-09
 -1.134508e-08
 -6.047349e-10
 1.265129e-08
 1.800086e-08
 1.342688e-08
 2.722161e-09
 -9.999005e-09
 -2.236894e-08
 -3.324783e-08
 -4.191193e-08
 -4.822096e-08
 -5.428895e-08
 -6.665228e-08
 -9.500301e-08
 -1.389978e-07
 -1.747146e-07
 -2.569159e-07
 -1.263381e-06
 2.168316e-08
 8.504901e-07
 1.319305e-07
 -9.061437e-08
 -1.770124e-07
 -2.188677e-07
 -2.863401e-07
 -4.491788e-07
 -7.761435e-07
 -1.406042e-06
 1.539082e-05
 -2.103303e-06
 -1.505004e-06
 -1.108517e-06
 -1.834526e-06
 -3.308956e-07
 6.750810e-07
 9.066167e-08
 -3.494458e-08
 -5.859216e-08
 -5.476937e-08
 -4.384343e-08
 -3.185724e-08
 -2.046396e-08
 -9.904539e-09
 0.000000e+00
 0.000000e+00
 1.150793e-07
 1.684090e-07
 1.353602e-07
 6.587614e-08
 3.271288e-09
 -3.441829e-08
 -3.552371e-08
 -3.879877e-09
 3.014169e-08
 4.002303e-08
 2.763877e-08
 6.329263e-09
 -1.555336e-08
 -3.540329e-08
 -5.261250e-08
 -6.597443e-08
 -7.317094e-08
 -7.425691e-08
 -7.963793e-08
 -1.157973e-07
 -2.200472e-07
 -2.555082e-07
 1.899897e-08
 1.974575e-07
 1.755135e-05
 -6.554865e-08
 -1.631435e-07
 -2.772630e-07
 -3.216143e-07
 -2.933804e-07
 -2.949846e-07
 -4.039619e-07
 -5.328633e-07
 -2.633472e-07
 -1.485773e-06
 -2.857830e-06
 -1.537384e-06
 -9.581678e-07
 -5.927929e-07
 1.708011e-05
 -2.722695e-07
 -1.802892e-07
 -1.500995e-07
 -1.181920e-07
 -9.048778e-08
 -6.702075e-08
 -4.705113e-08
 -2.978230e-08
 -1.439457e-08
 0.000000e+00
 0.000000e+00
 2.430213e-07
 3.613243e-07
 2.295801e-07
 7.664046e-08
 -2.993270e-08
 -9.956713e-08
 -9.871880e-08
 -8.620287e-09
 7.824320e-08
 8.590743e-08
 4.938428e-08
 9.491137e-09
 -2.342173e-08
 -5.093260e-08
 -7.552764e-08
 -9.642376e-08
 -1.060157e-07
 -9.292219e-08
 -6.416914e-08
 -6.704216e-08
 -1.992051e-07
 -1.226150e-06
 2.259381e-07
 1.733672e-06
 1.292351e-07
 -1.425175e-06
 -5.145571e-07
 -5.291503e-07
 -5.675319e-07
 -3.329027e-07
 -1.632472e-07
 -3.110248e-07
 -5.013000e-07
 -7.120097e-07
 -1.166905e-06
 -1.571741e-06
 -1.416044e-06
 -6.826035e-07
 4.440745e-07
 -3.264709e-07
 -1.592714e-06
 -4.741026e-07
 -2.633009e-07
 -1.730495e-07
 -1.219099e-07
 -8.670208e-08
 -5.954066e-08
 -3.720932e-08
 -1.786768e-08
 0.000000e+00
 0.000000e+00
 2.441460e-07
 9.764852e-07
 2.619186e-07
 3.985643e-08
 -8.926059e-08
 -2.343044e-07
 -2.803327e-07
 -5.598120e-09
 2.331234e-07
 1.721101e-07
 6.820206e-08
 4.265630e-09
 -3.669451e-08
 -6.886884e-08
 -1.009056e-07
 -1.368086e-07
 -1.644808e-07
 -1.352829e-07
 -2.225579e-08
 8.938663e-08
 1.402370e-07
 1.231593e-07
 1.762694e-05
 1.731274e-07
 -9.353844e-08
 -4.522201e-07
 -5.191373e-07
 -6.163520e-07
 -1.676294e-06
 -3.904641e-07
 4.600005e-07
 -2.614913e-07
 -5.326479e-07
 -7.430176e-07
 -9.906304e-07
 -1.266620e-06
 -2.258107e-06
 -7.055833e-07
 4.457616e-07
 -2.437794e-07
 -5.275481e-07
 -4.420905e-07
 -2.852231e-07
 -1.955475e-07
 -1.393789e-07
 -9.896512e-08
 -6.737797e-08
 -4.168302e-08
 -1.986816e-08
 0.000000e+00
 0.000000e+00
 1.741994e-05
 -3.618500e-08
 -2.098571e-08
 -6.315118e-08
 -1.261224e-07
 -2.971217e-07
 -1.366186e-06
 -4.878263e-08
 8.598147e-07
 2.156830e-07
 4.309732e-08
 -2.246994e-08
 -5.786227e-08
 -8.642993e-08
 -1.207147e-07
 -1.766461e-07
 -2.800884e-07
 -2.908428e-07
 2.662223e-08
 3.394638e-07
 4.628732e-07
 1.020279e-06
 6.167664e-08
 -1.324538e-06
 -3.911255e-07
 -3.574626e-07
 -3.533668e-07
 -3.249729e-07
 -3.600340e-07
 1.706534e-05
 -4.497111e-07
 -4.950802e-07
 -6.005585e-07
 -7.093730e-07
 -8.129439e-07
 -8.615387e-07
 -8.751024e-07
 1.667381e-05
 -6.466903e-07
 -4.749200e-07
 -3.808812e-07
 -3.042752e-07
 -2.403182e-07
 -1.880052e-07
 -1.427951e-07
 -1.029509e-07
 -6.941710e-08
 -4.227344e-08
 -1.991939e-08
 0.000000e+00
 0.000000e+00
 -2.825445e-07
 -1.446042e-06
 -3.314723e-07
 -1.477878e-07
 -8.405168e-08
 -4.587059e-08
 -6.552356e-08
 1.739576e-05
 -6.476896e-08
 -4.033523e-08
 -6.164407e-08
 -7.317842e-08
 -8.455123e-08
 -9.888138e-08
 -1.211384e-07
 -1.692553e-07
 -3.189297e-07
 -1.356823e-06
 4.432351e-09
 9.786402e-07
 4.367733e-07
 3.192674e-07
 3.804516e-10
 -3.409465e-07
 -3.688072e-07
 -2.917524e-07
 -2.139098e-07
 -4.508175e-08
 5.758876e-07
 -3.752912e-07
 -1.750791e-06
 -7.515211e-07
 -6.583702e-07
 -6.732550e-07
 -6.867119e-07
 -5.829693e-07
 2.188375e-08
 -9.177183e-07
 -2.153036e-06
 -6.998403e-07
 -2.121456e-07
 -1.563590e-07
 -1.819916e-07
 -1.743860e-07
 -1.413226e-07
 -1.003733e-07
 -6.473624e-08
 -3.796636e-08
 -1.754302e-08
 0.000000e+00
 0.000000e+00
 -1.971310e-07
 -3.884355e-07
 -3.014437e-07
 -1.433056e-07
 -1.928050e-08
 1.787897e-07
 8.324727e-07
 -7.474811e-08
 -1.395510e-06
 -3.331377e-07
 -1.719694e-07
 -1.234140e-07
 -1.085172e-07
 -1.049539e-07
 -1.022398e-07
 -9.037406e-08
 -5.370915e-08
 -4.789421e-08
 1.745032e-05
 2.621953e-08
 7.209915e-08
 1.798475e-08
 -1.129705e-07
 -2.475576e-07
 -2.810887e-07
 -2.269335e-07
 -1.410145e-07
 -4.396442e-08
 -1.938188e-08
 -3.128278e-07
 -6.538010e-07
 -6.852842e-07
 -6.349168e-07
 -6.366600e-07
 -6.522213e-07
 -6.411079e-07
 -6.492201e-07
 -9.667776e-07
 -2.153527e-06
 -6.217182e-07
 5.315707e-07
 -1.995954e-08
 -1.640629e-07
 -1.870883e-07
 -1.469135e-07
 -9.053498e-08
 -5.016078e-08
 -2.729549e-08
 -1.243713e-08
 0.000000e+00
 0.000000e+00
 -1.142987e-07
 -1.887970e-07
 -1.734066e-07
 -9.976630e-08
 -4.067895e-09
 1.183565e-07
 1.867244e-07
 -5.309928e-08
 -3.365761e-07
 -3.089314e-07
 -1.994496e-07
 -1.463604e-07
 -1.225340e-07
 -1.101103e-07
 -9.185903e-08
 -3.324709e-08
 1.582509e-07
 8.475972e-07
 -1.784126e-08
 -1.322698e-06
 -2.790834e-07
 -1.741370e-07
 -2.154115e-07
 -2.851781e-07
 -2.865782e-07
 -1.843915e-07
 -7.638542e-08
 -5.429280e-08
 -1.257970e-07
 -2.861656e-07
 -4.506299e-07
 -5.315775e-07
 -5.586276e-07
 -5.862151e-07
 -6.430573e-07
 -7.718381e-07
 -8.892770e-07
 -8.107616e-07
 -6.902135e-07
 1.708476e-05
 -9.747471e-08
 -1.252856e-07
 -2.510316e-07
 -2.649430e-07
 -1.661993e-07
 -5.798760e-08
 -1.670090e-08
 -9.817890e-09
 -5.401065e-09
 0.000000e+00
 0.000000e+00
 -6.293928e-08
 -1.020690e-07
 -1.015877e-07
 -6.794355e-08
 -1.811961e-08
 2.634120e-08
 2.090760e-08
 -7.044471e-08
 -1.730117e-07
 -1.976506e-07
 -1.708818e-07
 -1.422176e-07
 -1.253791e-07
 -1.186271e-07
 -1.141741e-07
 -8.414062e-08
 3.767255e-08
 1.941726e-07
 3.757672e-08
 -2.471714e-07
 -2.757756e-07
 -2.433235e-07
 -2.867585e-07
 -3.991568e-07
 -4.279287e-07
 -1.435682e-07
 9.606298e-08
 2.130111e-08
 -1.221398e-07
 -2.525280e-07
 -3.608594e-07
 -4.323436e-07
 -4.744324e-07
 -5.096966e-07
 -5.705660e-07
 -7.503201e-07
 -1.869706e-06
 -6.878996e-07
 -2.727754e-07
 -2.519788e-07
 -5.979269e-07
 -2.949639e-07
 -4.549069e-07
 -4.818258e-07
 -1.883971e-07
 6.842880e-08
 4.574473e-08
 4.269779e-09
 1.006121e-09
 0.000000e+00
 0.000000e+00
 -3.614195e-08
 -5.994993e-08
 -6.443698e-08
 -5.181608e-08
 -3.180084e-08
 -1.928198e-08
 -3.148166e-08
 -7.238021e-08
 -1.172266e-07
 -1.382302e-07
 -1.355398e-07
 -1.246835e-07
 -1.176085e-07
 -1.224803e-07
 -1.519645e-07
 -2.312794e-07
 -2.331278e-07
 2.975987e-08
 1.657449e-07
 -1.607766e-08
 -1.710187e-07
 -2.402108e-07
 -2.934290e-07
 -4.303610e-07
 -1.466811e-06
 -1.408518e-07
 7.535143e-07
 8.134814e-08
 -1.292239e-07
 -2.386946e-07
 -3.134717e-07
 -3.648579e-07
 -3.972330e-07
 -4.143950e-07
 -4.125796e-07
 -3.762568e-07
 -3.746885e-07
 1.704015e-05
 -1.484789e-06
 1.702320e-05
 1.172105e-07
 -4.990487e-07
 -6.259770e-07
 -1.593668e-06
 -2.523139e-07
 6.429644e-07
 3.449243e-08
 -2.222482e-08
 1.417257e-08
 0.000000e+00
 0.000000e+00
 -2.257394e-08
 -3.891746e-08
 -4.563611e-08
 -4.385040e-08
 -3.885104e-08
 -3.828911e-08
 -4.865501e-08
 -6.960209e-08
 -9.182489e-08
 -1.050471e-07
 -1.070291e-07
 -1.025818e-07
 -9.858919e-08
 -1.042152e-07
 -1.418017e-07
 -2.933646e-07
 -1.356895e-06
 -6.292392e-08
 7.880461e-07
 7.360051e-08
 -1.560218e-07
 -2.511357e-07
 -2.500316e-07
 -1.455169e-07
 -8.951159e-08
 1.737329e-05
 -1.280281e-07
 -1.481954e-07
 -2.085169e-07
 -2.530424e-07
 -2.893119e-07
 -3.166246e-07
 -3.338632e-07
 -3.358007e-07
 -2.877991e-07
 -5.970672e-08
 7.587808e-07
 1.256021e-07
 -6.261322e-07
 1.679404e-05
 -2.070384e-06
 -9.929192e-07
 -5.044909e-07
 -2.080385e-07
 1.721372e-05
 -3.899833e-07
 -3.876082e-07
 -1.083713e-07
 1.181069e-07
 0.000000e+00
 0.000000e+00
 -1.574027e-08
 -2.833018e-08
 -3.606926e-08
 -3.952962e-08
 -4.136947e-08
 -4.515389e-08
 -5.336265e-08
 -6.534198e-08
 -7.716260e-08
 -8.439178e-08
 -8.510898e-08
 -8.016584e-08
 -7.150790e-08
 -6.080052e-08
 -4.853759e-08
 -2.914596e-08
 -6.384198e-08
 1.737247e-05
 -1.274628e-07
 -1.544019e-07
 -2.414323e-07
 -3.498012e-07
 -3.325734e-07
 1.103615e-07
 9.873138e-07
 1.084621e-08
 -1.418011e-06
 -4.209677e-07
 -2.988630e-07
 -2.747251e-07
 -2.742944e-07
 -2.782285e-07
 -2.824464e-07
 -2.913633e-07
 -3.140727e-07
 -1.853279e-07
 2.696182e-07
 5.204138e-07
 8.290395e-07
 -4.953025e-07
 -2.239595e-06
 -2.151460e-06
 -3.751541e-07
 1.296048e-06
 -2.204241e-07
 -1.787920e-06
 -1.752710e-06
 -2.186930e-07
 7.449627e-07
 0.000000e+00
 0.000000e+00
 -1.231709e-08
 -2.300303e-08
 -3.115644e-08
 -3.700493e-08
 -4.177258e-08
 -4.701639e-08
 -5.364865e-08
 -6.114732e-08
 -6.761246e-08
 -7.077098e-08
 -6.901068e-08
 -6.139019e-08
 -4.633245e-08
 -1.841888e-08
 4.143145e-08
 2.065138e-07
 8.379336e-07
 -9.120055e-08
 -1.437885e-06
 -4.083327e-07
 -3.010021e-07
 -3.978693e-07
 -1.396926e-06
 2.197732e-08
 9.855627e-07
 9.415574e-08
 -3.647637e-07
 -4.011562e-07
 -3.198077e-07
 -2.787968e-07
 -2.568802e-07
 -2.408415e-07
 -2.276872e-07
 -2.310926e-07
 -3.242659e-07
 -1.299831e-06
 9.602719e-08
 1.033390e-06
 3.156685e-07
 -2.308295e-07
 -6.358086e-07
 -6.170322e-07
 1.708028e-05
 -2.332580e-07
 -3.877183e-07
 -5.803837e-07
 -4.227843e-07
 1.729255e-05
 -5.397919e-08
 0.000000e+00
 0.000000e+00
 -1.065650e-08
 -2.041239e-08
 -2.873024e-08
 -3.562669e-08
 -4.158827e-08
 -4.722521e-08
 -5.280601e-08
 -5.792247e-08
 -6.151296e-08
 -6.221756e-08
 -5.870510e-08
 -4.953733e-08
 -3.229673e-08
 -1.690446e-09
 5.353242e-08
 1.479068e-07
 1.966200e-07
 -5.826193e-08
 -3.530371e-07
 -3.307067e-07
 -2.154070e-07
 -1.329666e-07
 -1.118566e-07
 1.738184e-05
 -9.334682e-08
 -1.655247e-07
 -2.906564e-07
 -3.236213e-07
 -2.989527e-07
 -2.657641e-07
 -2.351163e-07
 -2.026910e-07
 -1.630256e-07
 -1.118376e-07
 -4.169160e-08
 -1.670489e-08
 1.747729e-05
 1.363786e-08
 -2.447074e-08
 -1.538955e-07
 -1.375437e-07
 4.844872e-07
 -3.650044e-07
 -1.661715e-06
 -6.788120e-07
 -4.159343e-07
 6.016996e-07
 5.555934e-08
 -1.183295e-06
 0.000000e+00
 0.000000e+00
 -9.962199e-09
 -1.936032e-08
 -2.781168e-08
 -3.520781e-08
 -4.166806e-08
 -4.736613e-08
 -5.230770e-08
 -5.617430e-08
 -5.831817e-08
 -5.788388e-08
 -5.391833e-08
 -4.532136e-08
 -3.063152e-08
 -8.037228e-09
 2.260527e-08
 4.957854e-08
 3.118658e-08
 -6.755242e-08
 -1.691270e-07
 -1.764009e-07
 -9.340924e-08
 1.068018e-07
 7.719974e-07
 -1.304777e-07
 -1.469066e-06
 -4.504961e-07
 -3.341866e-07
 -3.032456e-07
 -2.776249e-07
 -2.485842e-07
 -2.151690e-07
 -1.720864e-07
 -1.098042e-07
 -8.410711e-09
 2.018878e-07
 8.758505e-07
 -2.087504e-08
 -1.352008e-06
 -3.215213e-07
 -1.888582e-07
 -1.094410e-07
 -5.552147e-08
 -2.782107e-07
 -5.603004e-07
 -6.324930e-07
 -1.477521e-06
 -2.289904e-09
 7.744724e-07
 -1.814659e-08
 0.000000e+00
 0.000000e+00
 -9.864856e-09
 -1.930489e-08
 -2.799015e-08
 -3.573545e-08
 -4.248005e-08
 -4.820478e-08
 -5.282530e-08
 -5.611451e-08
 -5.769036e-08
 -5.706290e-08
 -5.370122e-08
 -4.710268e-08
 -3.696474e-08
 -2.381964e-08
 -1.087017e-08
 -7.105627e-09
 -2.608341e-08
 -6.905843e-08
 -1.075048e-07
 -1.065319e-07
 -5.297022e-08
 5.392579e-08
 1.180797e-07
 -1.263711e-07
 -4.226873e-07
 -4.165666e-07
 -3.285224e-07
 -2.863367e-07
 -2.597025e-07
 -2.348360e-07
 -2.043368e-07
 -1.595933e-07
 -9.021968e-08
 1.300655e-08
 1.537124e-07
 2.354499e-07
 -4.663118e-09
 -3.024145e-07
 -2.969623e-07
 -2.052216e-07
 -1.578694e-07
 -1.550192e-07
 -2.172772e-07
 -2.728857e-07
 -2.303612e-07
 -1.780140e-07
 1.733865e-05
 -1.232796e-07
 -8.164658e-08
 0.000000e+00
 0.000000e+00
 -1.020950e-08
 -2.003045e-08
 -2.913125e-08
 -3.727144e-08
 -4.430017e-08
 -5.012183e-08
 -5.464652e-08
 -5.774963e-08
 -5.925946e-08
 -5.897917e-08
 -5.674358e-08
 -5.252996e-08
 -4.669108e-08
 -4.042647e-08
 -3.648109e-08
 -3.931397e-08
 -5.266726e-08
 -7.380146e-08
 -9.079269e-08
 -9.030022e-08
 -6.860553e-08
 -4.102124e-08
 -5.502668e-08
 -1.518109e-07
 -2.610752e-07
 -2.953125e-07
 -2.789300e-07
 -2.573150e-07
 -2.408505e-07
 -2.263132e-07
 -2.073288e-07
 -1.720434e-07
 -1.048190e-07
 -7.012859e-09
 8.058979e-08
 9.008563e-08
 -1.254671e-08
 -1.389777e-07
 -1.895680e-07
 -1.845008e-07
 -1.711387e-07
 -1.652257e-07
 -1.580183e-07
 -1.079610e-07
 7.460643e-08
 7.403703e-07
 -1.513219e-07
 -1.444705e-06
 -3.075820e-07
 0.000000e+00
 0.000000e+00
 -1.095288e-08
 -2.149242e-08
 -3.124887e-08
 -3.992856e-08
 -4.732803e-08
 -5.332921e-08
 -5.788048e-08
 -6.097294e-08
 -6.262271e-08
 -6.287140e-08
 -6.181975e-08
 -5.971430e-08
 -5.710699e-08
 -5.507242e-08
 -5.533050e-08
 -5.985959e-08
 -6.954099e-08
 -8.236228e-08
 -9.337728e-08
 -9.796627e-08
 -9.656646e-08
 -9.810572e-08
 -1.177192e-07
 -1.600957e-07
 -2.036172e-07
 -2.247576e-07
 -2.261059e-07
 -2.219166e-07
 -2.198328e-07
 -2.212675e-07
 -2.252606e-07
 -2.190628e-07
 -1.578355e-07
 -2.228542e-08
 8.811803e-08
 8.601184e-08
 6.526131e-09
 -8.186495e-08
 -1.388785e-07
 -1.645813e-07
 -1.742680e-07
 -1.704952e-07
 -1.364140e-07
 -5.445420e-08
 6.784035e-08
 1.179287e-07
 -1.548541e-07
 -4.275844e-07
 -2.905090e-07
 0.000000e+00
 0.000000e+00
 -1.211721e-08
 -2.375069e-08
 -3.445887e-08
 -4.388051e-08
 -5.176542e-08
 -5.799345e-08
 -6.257691e-08
 -6.564231e-08
 -6.739546e-08
 -6.808613e-08
 -6.799842e-08
 -6.748883e-08
 -6.707081e-08
 -6.750009e-08
 -6.974924e-08
 -7.472020e-08
 -8.267159e-08
 -9.274130e-08
 -1.032700e-07
 -1.131378e-07
 -1.231302e-07
 -1.356392e-07
 -1.515677e-07
 -1.667292e-07
 -1.747390e-07
 -1.758220e-07
 -1.769779e-07
 -1.833389e-07
 -1.952033e-07
 -2.127373e-07
 -2.453913e-07
 -3.219168e-07
 -3.154917e-07
 -9.101139e-09
 2.373385e-07
 1.617699e-07
 2.885644e-08
 -6.418169e-08
 -1.219933e-07
 -1.578803e-07
 -1.868154e-07
 -2.056317e-07
 -1.677737e-07
 -4.649647e-08
 5.422593e-08
 1.666731e-09
 -2.390293e-07
 -4.277195e-07
 -2.492724e-07
 0.000000e+00
 0.000000e+00
 -1.377240e-08
 -2.694787e-08
 -3.897421e-08
 -4.939135e-08
 -5.788235e-08
 -6.432185e-08
 -6.880466e-08
 -7.163053e-08
 -7.323498e-08
 -7.408978e-08
 -7.462482e-08
 -7.521493e-08
 -7.623118e-08
 -7.810614e-08
 -8.133863e-08
 -8.638904e-08
 -9.351599e-08
 -1.027469e-07
 -1.141887e-07
 -1.285441e-07
 -1.469805e-07
 -1.686913e-07
 -1.855380e-07
 -1.819588e-07
 -1.542644e-07
 -1.262363e-07
 -1.216103e-07
 -1.391392e-07
 -1.662807e-07
 -1.929843e-07
 -2.239872e-07
 -3.389033e-07
 -1.355856e-06
 -1.741403e-08
 8.816275e-07
 2.108013e-07
 7.093770e-09
 -8.265182e-08
 -1.277605e-07
 -1.559638e-07
 -1.992837e-07
 -2.970133e-07
 -3.142776e-07
 -2.223205e-08
 2.138579e-07
 9.580199e-08
 -2.092189e-07
 -1.406229e-06
 -2.780135e-07
 0.000000e+00
 0.000000e+00
 -1.603189e-08
 -3.130943e-08
 -4.512260e-08
 -5.686076e-08
 -6.608874e-08
 -7.264280e-08
 -7.671298e-08
 -7.884556e-08
 -7.981514e-08
 -8.040199e-08
 -8.119497e-08
 -8.252693e-08
 -8.454739e-08
 -8.735068e-08
 -9.107303e-08
 -9.593183e-08
 -1.022604e-07
 -1.106545e-07
 -1.223339e-07
 -1.396612e-07
 -1.662755e-07
 -2.046079e-07
 -2.417906e-07
 -2.277495e-07
 -1.339547e-07
 -4.743181e-08
 -4.253988e-08
 -8.603958e-08
 -1.389857e-07
 -1.782478e-07
 -1.550939e-07
 -3.735055e-08
 2.768503e-08
 1.749442e-05
 -8.841635e-09
 -3.540841e-08
 -1.016584e-07
 -1.416943e-07
 -1.520701e-07
 -1.407384e-07
 -1.557445e-07
 -2.992764e-07
 -1.356054e-06
 -2.852293e-08
 8.933836e-07
 2.657928e-07
 1.190652e-07
 3.078099e-08
 1.744800e-05
 0.000000e+00
 0.000000e+00
 -1.905282e-08
 -3.715127e-08
 -5.337456e-08
 -6.688577e-08
 -7.703028e-08
 -8.351107e-08
 -8.660011e-08
 -8.722375e-08
 -8.674185e-08
 -8.646115e-08
 -8.719406e-08
 -8.914239e-08
 -9.208978e-08
 -9.569013e-08
 -9.968721e-08
 -1.040419e-07
 -1.090373e-07
 -1.154725e-07
 -1.250935e-07
 -1.415229e-07
 -1.722560e-07
 -2.327297e-07
 -3.494350e-07
 -3.831113e-07
 -1.024912e-07
 1.399605e-07
 8.081073e-08
 -2.829888e-08
 -1.178565e-07
 -2.255938e-07
 -2.062005e-07
 2.387477e-07
 1.115957e-06
 1.359225e-07
 -1.302740e-06
 -3.244062e-07
 -2.310632e-07
 -2.326236e-07
 -2.061399e-07
 -1.048303e-07
 -7.149608e-09
 2.870959e-08
 -1.107572e-08
 1.744874e-05
 1.903058e-08
 1.313989e-07
 3.335877e-07
 1.043229e-06
 2.863272e-07
 0.000000e+00
 0.000000e+00
 -2.303337e-08
 -4.488095e-08
 -6.436652e-08
 -8.033537e-08
 -9.173363e-08
 -9.788985e-08
 -9.903387e-08
 -9.669719e-08
 -9.337419e-08
 -9.139535e-08
 -9.190575e-08
 -9.473987e-08
 -9.899719e-08
 -1.036698e-07
 -1.079952e-07
 -1.115909e-07
 -1.145196e-07
 -1.173908e-07
 -1.216312e-07
 -1.303215e-07
 -1.508892e-07
 -2.048597e-07
 -3.710046e-07
 -1.436937e-06
 -1.156908e-07
 8.001469e-07
 1.672575e-07
 4.021952e-09
 -7.545578e-08
 -2.235280e-07
 -1.239010e-06
 1.722481e-07
 1.129426e-06
 2.293562e-07
 -2.444572e-07
 -3.093637e-07
 -2.855342e-07
 -3.579077e-07
 -3.659896e-07
 -6.040274e-08
 2.349200e-07
 3.452065e-07
 9.069178e-07
 -1.883114e-08
 -1.311909e-06
 -1.509353e-07
 2.242025e-07
 4.545307e-07
 3.190766e-07
 0.000000e+00
 0.000000e+00
 -2.820156e-08
 -5.497481e-08
 -7.888613e-08
 -9.841057e-08
 -1.118305e-07
 -1.175213e-07
 -1.151367e-07
 -1.071261e-07
 -9.843375e-08
 -9.360022e-08
 -9.417206e-08
 -9.890586e-08
 -1.055366e-07
 -1.120613e-07
 -1.171064e-07
 -1.198945e-07
 -1.201829e-07
 -1.181757e-07
 -1.143063e-07
 -1.090037e-07
 -1.025856e-07
 -9.443691e-08
 -7.667588e-08
 -1.048503e-07
 1.735515e-05
 -9.596673e-08
 -4.611045e-08
 -2.602135e-08
 1.366931e-08
 6.557151e-08
 7.111185e-08
 1.755322e-05
 6.788171e-08
 -1.448232e-08
 -1.529432e-07
 -2.100822e-07
 -2.426090e-07
 -3.797969e-07
 -1.422564e-06
 -8.115077e-08
 8.626681e-07
 2.943829e-07
 1.999653e-07
 -2.786572e-08
 -3.147294e-07
 -2.619280e-07
 1.496811e-07
 4.238934e-07
 2.794112e-07
 0.000000e+00
 0.000000e+00
 -3.479998e-08
 -6.791759e-08
 -9.775135e-08
 -1.225757e-07
 -1.398491e-07
 -1.457506e-07
 -1.373784e-07
 -1.181577e-07
 -9.903345e-08
 -8.988902e-08
 -9.213039e-08
 -1.012482e-07
 -1.122969e-07
 -1.220302e-07
 -1.285639e-07
 -1.307771e-07
 -1.281814e-07
 -1.208143e-07
 -1.084039e-07
 -8.874293e-08
 -5.532364e-08
 1.082568e-08
 1.816614e-07