<VTKFile type="UnstructuredGrid"  version="0.1"   >
<UnstructuredGrid>  
<Piece  NumberOfPoints="     2601"  NumberOfCells="     5000">  
<Points>  
<DataArray  type="Float64"  NumberOfComponents="3"  format="ascii">  
 0.000000 0.000000 0.000000 
 0.020000 0.000000 0.000000 
 0.040000 0.000000 0.000000 
 0.060000 0.000000 0.000000 
 0.080000 0.000000 0.000000 
 0.100000 0.000000 0.000000 
 0.120000 0.000000 0.000000 
 0.140000 0.000000 0.000000 
 0.160000 0.000000 0.000000 
 0.180000 0.000000 0.000000 
 0.200000 0.000000 0.000000 
 0.220000 0.000000 0.000000 
 0.240000 0.000000 0.000000 
 0.260000 0.000000 0.000000 
 0.280000 0.000000 0.000000 
 0.300000 0.000000 0.000000 
 0.320000 0.000000 0.000000 
 0.340000 0.000000 0.000000 
 0.360000 0.000000 0.000000 
 0.380000 0.000000 0.000000 
 0.400000 0.000000 0.000000 
 0.420000 0.000000 0.000000 
 0.440000 0.000000 0.000000 
 0.460000 0.000000 0.000000 
 0.480000 0.000000 0.000000 
 0.500000 0.000000 0.000000 
 0.520000 0.000000 0.000000 
 0.540000 0.000000 0.000000 
 0.560000 0.000000 0.000000 
 0.580000 0.000000 0.000000 
 0.600000 0.000000 0.000000 
 0.620000 0.000000 0.000000 
 0.640000 0.000000 0.000000 
 0.660000 0.000000 0.000000 
 0.680000 0.000000 0.000000 
 0.700000 0.000000 0.000000 
 0.720000 0.000000 0.000000 
 0.740000 0.000000 0.000000 
 0.760000 0.000000 0.000000 
 0.780000 0.000000 0.000000 
 0.800000 0.000000 0.000000 
 0.820000 0.000000 0.000000 
 0.840000 0.000000 0.000000 
 0.860000 0.000000 0.000000 
 0.880000 0.000000 0.000000 
 0.900000 0.000000 0.000000 
 0.920000 0.000000 0.000000 
 0.940000 0.000000 0.000000 
 0.960000 0.000000 0.000000 
 0.980000 0.000000 0.000000 
 1.000000 0.000000 0.000000 
 0.000000 0.020000 0.000000 
 0.020000 0.020000 0.000000 
 0.040000 0.020000 0.000000 
 0.060000 0.020000 0.000000 
 0.080000 0.020000 0.000000 
 0.100000 0.020000 0.000000 
 0.120000 0.020000 0.000000 
 0.140000 0.020000 0.000000 
 0.160000 0.020000 0.000000 
 0.180000 0.020000 0.000000 
 0.200000 0.020000 0.000000 
 0.220000 0.020000 0.000000 
 0.240000 0.020000 0.000000 
 0.260000 0.020000 0.000000 
 0.280000 0.020000 0.000000 
 0.300000 0.020000 0.000000 
 0.320000 0.020000 0.000000 
 0.340000 0.020000 0.000000 
 0.360000 0.020000 0.000000 
 0.380000 0.020000 0.000000 
 0.400000 0.020000 0.000000 
 0.420000 0.020000 0.000000 
 0.440000 0.020000 0.000000 
 0.460000 0.020000 0.000000 
 0.480000 0.020000 0.000000 
 0.500000 0.020000 0.000000 
 0.520000 0.020000 0.000000 
 0.540000 0.020000 0.000000 
 0.560000 0.020000 0.000000 
 0.580000 0.020000 0.000000 
 0.600000 0.020000 0.000000 
 0.620000 0.020000 0.000000 
 0.640000 0.020000 0.000000 
 0.660000 0.020000 0.000000 
 0.680000 0.020000 0.000000 
 0.700000 0.020000 0.000000 
 0.720000 0.020000 0.000000 
 0.740000 0.020000 0.000000 
 0.760000 0.020000 0.000000 
 0.780000 0.020000 0.000000 
 0.800000 0.020000 0.000000 
 0.820000 0.020000 0.000000 
 0.840000 0.020000 0.000000 
 0.860000 0.020000 0.000000 
 0.880000 0.020000 0.000000 
 0.900000 0.020000 0.000000 
 0.920000 0.020000 0.000000 
 0.940000 0.020000 0.000000 
 0.960000 0.020000 0.000000 
 0.980000 0.020000 0.000000 
 1.000000 0.020000 0.000000 
 0.000000 0.040000 0.000000 
 0.020000 0.040000 0.000000 
 0.040000 0.040000 0.000000 
 0.060000 0.040000 0.000000 
 0.080000 0.040000 0.000000 
 0.100000 0.040000 0.000000 
 0.120000 0.040000 0.000000 
 0.140000 0.040000 0.000000 
 0.160000 0.040000 0.000000 
 0.180000 0.040000 0.000000 
 0.200000 0.040000 0.000000 
 0.220000 0.040000 0.000000 
 0.240000 0.040000 0.000000 
 0.260000 0.040000 0.000000 
 0.280000 0.040000 0.000000 
 0.300000 0.040000 0.000000 
 0.320000 0.040000 0.000000 
 0.340000 0.040000 0.000000 
 0.360000 0.040000 0.000000 
 0.380000 0.040000 0.000000 
 0.400000 0.040000 0.000000 
 0.420000 0.040000 0.000000 
 0.440000 0.040000 0.000000 
 0.460000 0.040000 0.000000 
 0.480000 0.040000 0.000000 
 0.500000 0.040000 0.000000 
 0.520000 0.040000 0.000000 
 0.540000 0.040000 0.000000 
 0.560000 0.040000 0.000000 
 0.580000 0.040000 0.000000 
 0.600000 0.040000 0.000000 
 0.620000 0.040000 0.000000 
 0.640000 0.040000 0.000000 
 0.660000 0.040000 0.000000 
 0.680000 0.040000 0.000000 
 0.700000 0.040000 0.000000 
 0.720000 0.040000 0.000000 
 0.740000 0.040000 0.000000 
 0.760000 0.040000 0.000000 
 0.780000 0.040000 0.000000 
 0.800000 0.040000 0.000000 
 0.820000 0.040000 0.000000 
 0.840000 0.040000 0.000000 
 0.860000 0.040000 0.000000 
 0.880000 0.040000 0.000000 
 0.900000 0.040000 0.000000 
 0.920000 0.040000 0.000000 
 0.940000 0.040000 0.000000 
 0.960000 0.040000 0.000000 
 0.980000 0.040000 0.000000 
 1.000000 0.040000 0.000000 
 0.000000 0.060000 0.000000 
 0.020000 0.060000 0.000000 
 0.040000 0.060000 0.000000 
 0.060000 0.060000 0.000000 
 0.080000 0.060000 0.000000 
 0.100000 0.060000 0.000000 
 0.120000 0.060000 0.000000 
 0.140000 0.060000 0.000000 
 0.160000 0.060000 0.000000 
 0.180000 0.060000 0.000000 
 0.200000 0.060000 0.000000 
 0.220000 0.060000 0.000000 
 0.240000 0.060000 0.000000 
 0.260000 0.060000 0.000000 
 0.280000 0.060000 0.000000 
 0.300000 0.060000 0.000000 
 0.320000 0.060000 0.000000 
 0.340000 0.060000 0.000000 
 0.360000 0.060000 0.000000 
 0.380000 0.060000 0.000000 
 0.400000 0.060000 0.000000 
 0.420000 0.060000 0.000000 
 0.440000 0.060000 0.000000 
 0.460000 0.060000 0.000000 
 0.480000 0.060000 0.000000 
 0.500000 0.060000 0.000000 
 0.520000 0.060000 0.000000 
 0.540000 0.060000 0.000000 
 0.560000 0.060000 0.000000 
 0.580000 0.060000 0.000000 
 0.600000 0.060000 0.000000 
 0.620000 0.060000 0.000000 
 0.640000 0.060000 0.000000 
 0.660000 0.060000 0.000000 
 0.680000 0.060000 0.000000 
 0.700000 0.060000 0.000000 
 0.720000 0.060000 0.000000 
 0.740000 0.060000 0.000000 
 0.760000 0.060000 0.000000 
 0.780000 0.060000 0.000000 
 0.800000 0.060000 0.000000 
 0.820000 0.060000 0.000000 
 0.840000 0.060000 0.000000 
 0.860000 0.060000 0.000000 
 0.880000 0.060000 0.000000 
 0.900000 0.060000 0.000000 
 0.920000 0.060000 0.000000 
 0.940000 0.060000 0.000000 
 0.960000 0.060000 0.000000 
 0.980000 0.060000 0.000000 
 1.000000 0.060000 0.000000 
 0.000000 0.080000 0.000000 
 0.020000 0.080000 0.000000 
 0.040000 0.080000 0.000000 
 0.060000 0.080000 0.000000 
 0.080000 0.080000 0.000000 
 0.100000 0.080000 0.000000 
 0.120000 0.080000 0.000000 
 0.140000 0.080000 0.000000 
 0.160000 0.080000 0.000000 
 0.180000 0.080000 0.000000 
 0.200000 0.080000 0.000000 
 0.220000 0.080000 0.000000 
 0.240000 0.080000 0.000000 
 0.260000 0.080000 0.000000 
 0.280000 0.080000 0.000000 
 0.300000 0.080000 0.000000 
 0.320000 0.080000 0.000000 
 0.340000 0.080000 0.000000 
 0.360000 0.080000 0.000000 
 0.380000 0.080000 0.000000 
 0.400000 0.080000 0.000000 
 0.420000 0.080000 0.000000 
 0.440000 0.080000 0.000000 
 0.460000 0.080000 0.000000 
 0.480000 0.080000 0.000000 
 0.500000 0.080000 0.000000 
 0.520000 0.080000 0.000000 
 0.540000 0.080000 0.000000 
 0.560000 0.080000 0.000000 
 0.580000 0.080000 0.000000 
 0.600000 0.080000 0.000000 
 0.620000 0.080000 0.000000 
 0.640000 0.080000 0.000000 
 0.660000 0.080000 0.000000 
 0.680000 0.080000 0.000000 
 0.700000 0.080000 0.000000 
 0.720000 0.080000 0.000000 
 0.740000 0.080000 0.000000 
 0.760000 0.080000 0.000000 
 0.780000 0.080000 0.000000 
 0.800000 0.080000 0.000000 
 0.820000 0.080000 0.000000 
 0.840000 0.080000 0.000000 
 0.860000 0.080000 0.000000 
 0.880000 0.080000 0.000000 
 0.900000 0.080000 0.000000 
 0.920000 0.080000 0.000000 
 0.940000 0.080000 0.000000 
 0.960000 0.080000 0.000000 
 0.980000 0.080000 0.000000 
 1.000000 0.080000 0.000000 
 0.000000 0.100000 0.000000 
 0.020000 0.100000 0.000000 
 0.040000 0.100000 0.000000 
 0.060000 0.100000 0.000000 
 0.080000 0.100000 0.000000 
 0.100000 0.100000 0.000000 
 0.120000 0.100000 0.000000 
 0.140000 0.100000 0.000000 
 0.160000 0.100000 0.000000 
 0.180000 0.100000 0.000000 
 0.200000 0.100000 0.000000 
 0.220000 0.100000 0.000000 
 0.240000 0.100000 0.000000 
 0.260000 0.100000 0.000000 
 0.280000 0.100000 0.000000 
 0.300000 0.100000 0.000000 
 0.320000 0.100000 0.000000 
 0.340000 0.100000 0.000000 
 0.360000 0.100000 0.000000 
 0.380000 0.100000 0.000000 
 0.400000 0.100000 0.000000 
 0.420000 0.100000 0.000000 
 0.440000 0.100000 0.000000 
 0.460000 0.100000 0.000000 
 0.480000 0.100000 0.000000 
 0.500000 0.100000 0.000000 
 0.520000 0.100000 0.000000 
 0.540000 0.100000 0.000000 
 0.560000 0.100000 0.000000 
 0.580000 0.100000 0.000000 
 0.600000 0.100000 0.000000 
 0.620000 0.100000 0.000000 
 0.640000 0.100000 0.000000 
 0.660000 0.100000 0.000000 
 0.680000 0.100000 0.000000 
 0.700000 0.100000 0.000000 
 0.720000 0.100000 0.000000 
 0.740000 0.100000 0.000000 
 0.760000 0.100000 0.000000 
 0.780000 0.100000 0.000000 
 0.800000 0.100000 0.000000 
 0.820000 0.100000 0.000000 
 0.840000 0.100000 0.000000 
 0.860000 0.100000 0.000000 
 0.880000 0.100000 0.000000 
 0.900000 0.100000 0.000000 
 0.920000 0.100000 0.000000 
 0.940000 0.100000 0.000000 
 0.960000 0.100000 0.000000 
 0.980000 0.100000 0.000000 
 1.000000 0.100000 0.000000 
 0.000000 0.120000 0.000000 
 0.020000 0.120000 0.000000 
 0.040000 0.120000 0.000000 
 0.060000 0.120000 0.000000 
 0.080000 0.120000 0.000000 
 0.100000 0.120000 0.000000 
 0.120000 0.120000 0.000000 
 0.140000 0.120000 0.000000 
 0.160000 0.120000 0.000000 
 0.180000 0.120000 0.000000 
 0.200000 0.120000 0.000000 
 0.220000 0.120000 0.000000 
 0.240000 0.120000 0.000000 
 0.260000 0.120000 0.000000 
 0.280000 0.120000 0.000000 
 0.300000 0.120000 0.000000 
 0.320000 0.120000 0.000000 
 0.340000 0.120000 0.000000 
 0.360000 0.120000 0.000000 
 0.380000 0.120000 0.000000 
 0.400000 0.120000 0.000000 
 0.420000 0.120000 0.000000 
 0.440000 0.120000 0.000000 
 0.460000 0.120000 0.000000 
 0.480000 0.120000 0.000000 
 0.500000 0.120000 0.000000 
 0.520000 0.120000 0.000000 
 0.540000 0.120000 0.000000 
 0.560000 0.120000 0.000000 
 0.580000 0.120000 0.000000 
 0.600000 0.120000 0.000000 
[...]
<PointData  Scalars="U"> 
<DataArray  type="Float64"  Name="U"  format="ascii"> 
 0.000000e+00
 0.000000e+00
 0.000000e+00
 0.000000e+00
 0.000000e+00
 0.000000e+00
 0.000000e+00
 0.000000e+00
 0.000000e+00
 0.000000e+00
 0.000000e+00
 0.000000e+00
 0.000000e+00
 0.000000e+00
 0.000000e+00
 0.000000e+00
 0.000000e+00
 0.000000e+00
 0.000000e+00
 0.000000e+00
 0.000000e+00
 0.000000e+00
 0.000000e+00
 0.000000e+00
 0.000000e+00
 0.000000e+00
 0.000000e+00
 0.000000e+00
 0.000000e+00
 0.000000e+00
 0.000000e+00
 0.000000e+00
 0.000000e+00
 0.000000e+00
 0.000000e+00
 0.000000e+00
 0.000000e+00
 0.000000e+00
 0.000000e+00
 0.000000e+00
 0.000000e+00
 0.000000e+00
 0.000000e+00
 0.000000e+00
 0.000000e+00
 0.000000e+00
 0.000000e+00
 0.000000e+00
 0.000000e+00
 0.000000e+00
 0.000000e+00
 0.000000e+00
 1.610248e-09
 3.238754e-09
 4.904697e-09
 6.637382e-09
 8.495497e-09
 1.058780e-08
 1.306794e-08
 1.601138e-08
 1.880520e-08
 1.745958e-08
 -7.423636e-09
 -1.474727e-07
 -1.239848e-06
 -2.551603e-08
 7.898326e-07
 1.367320e-07
 2.879637e-09
 -1.896774e-08
 -1.734577e-08
 -1.323623e-08
 -1.113281e-08
 -1.141326e-08
 -1.360802e-08
 -1.719940e-08
 -2.167439e-08
 -2.634968e-08
 -3.009139e-08
 -3.104829e-08
 -2.690726e-08
 -1.667047e-08
 -5.238022e-09
 -1.611286e-08
 -1.464964e-07
 -1.237981e-06
 -3.199928e-08
 7.734255e-07
 1.236892e-07
 9.965107e-09
 3.353235e-09
 -3.686246e-09
 -2.434412e-08
 -4.118290e-08
 -3.411762e-08
 -1.042598e-09
 3.275613e-08
 4.475178e-08
 3.809690e-08
 2.487178e-08
 1.101325e-08
 0.000000e+00
 0.000000e+00
 3.202130e-09
 6.441432e-09
 9.747441e-09
 1.315819e-08
 1.676667e-08
 2.078435e-08
 2.559812e-08
 3.178531e-08
 3.999563e-08
 5.045235e-08
 6.186022e-08
 7.368677e-08
 1.635619e-08
 1.742256e-05
 -8.351260e-08
 -7.005193e-08
 -7.248862e-08
 -5.345791e-08
 -3.517002e-08
 -2.396154e-08
 -1.979401e-08
 -2.092075e-08
 -2.582485e-08
 -3.348963e-08
 -4.307499e-08
 -5.350187e-08
 -6.284798e-08
 -6.734210e-08
 -6.075474e-08
 -3.690922e-08
 3.563372e-09
 4.902859e-08
 8.500293e-08
 3.073972e-08
 1.741307e-05
 -1.314393e-07
 -1.188925e-07
 -5.276927e-08
 2.110199e-08
 1.031057e-08
 -5.210566e-08
 -1.092937e-07
 -1.005308e-07
 -2.033491e-09
 9.325878e-08
 1.092842e-07
 8.122776e-08
 4.924858e-08
 2.277297e-08
 0.000000e+00
 0.000000e+00
 4.754815e-09
 9.577872e-09
 1.449409e-08
 1.950118e-08
 2.465884e-08
 3.021954e-08
 3.677632e-08
 4.548794e-08
 5.868447e-08
 8.204443e-08
 1.335416e-07
 2.841449e-07
 8.945775e-07
 -5.459469e-08
 -1.404348e-06
 -3.455012e-07
 -1.636548e-07
 -8.489534e-08
 -4.495038e-08
 -2.743872e-08
 -2.324601e-08
 -2.674745e-08
 -3.530991e-08
 -4.782365e-08
 -6.350880e-08
 -8.142833e-08
 -9.995886e-08
 -1.145565e-07
 -1.130543e-07
 -7.596779e-08
 6.333787e-09
 1.271580e-07
 3.275267e-07
 9.504670e-07
 -4.312830e-08
 -1.521256e-06
 -5.293917e-07
 -1.136734e-07
 1.529591e-07
 7.402009e-08
 -8.307754e-08
 -2.456450e-07
 -2.864765e-07
 4.939538e-09
 2.606685e-07
 2.138254e-07
 1.219083e-07
 6.695415e-08
 3.064655e-08
 0.000000e+00
 0.000000e+00
 6.230130e-09
 1.261434e-08
 1.915905e-08
 2.572563e-08
 3.220343e-08
 3.874523e-08
 4.596361e-08
 5.513463e-08
 6.867853e-08
 9.149096e-08
 1.336768e-07
 2.082959e-07
 2.305976e-07
 -5.233893e-08
 -3.637945e-07
 -3.308413e-07
 -1.813119e-07
 -8.195724e-08
 -3.285479e-08
 -1.819534e-08
 -1.954254e-08
 -2.775177e-08
 -4.087385e-08
 -5.895674e-08
 -8.163900e-08
 -1.083638e-07
 -1.396715e-07
 -1.759520e-07
 -2.026270e-07
 -1.652596e-07
 -2.397984e-08
 1.567210e-07
 3.201334e-07
 3.829992e-07
 6.525389e-08
 -4.416606e-07
 -1.535405e-06
 -1.383912e-07
 7.967660e-07
 1.271725e-07
 -1.148187e-07
 -3.355428e-07
 -1.387884e-06
 -3.284590e-08
 9.033628e-07
 2.774193e-07
 1.215370e-07
 6.803686e-08
 3.418426e-08
 0.000000e+00
 0.000000e+00
 7.521866e-09
 1.546066e-08
 2.380511e-08
 3.208462e-08
 3.976148e-08
 4.669863e-08
 5.336720e-08
 6.077247e-08
 7.025443e-08
 8.300779e-08
 9.770853e-08
 1.001915e-07
 4.564631e-08
 -1.025129e-07
 -2.547700e-07
 -2.707572e-07
 -1.485935e-07
 -2.489706e-08
 1.389021e-08
 4.986310e-09
 -1.020162e-08
 -2.407193e-08
 -4.133478e-08
 -6.542129e-08
 -9.595008e-08
 -1.309893e-07
 -1.729449e-07
 -2.375788e-07
 -3.553458e-07
 -3.859888e-07
 -8.887253e-08
 2.195112e-07
 3.181409e-07
 3.639801e-07
 2.581067e-07
 5.328559e-08
 -9.964675e-08
 1.737658e-05
 -5.547623e-08
 -7.999547e-08
 -1.748431e-07
 -1.795904e-07
 -1.213728e-07
 1.743424e-05
 4.973002e-09
 4.006105e-08
 4.569081e-08
 5.767753e-08
 4.107997e-08
 0.000000e+00
 0.000000e+00
 8.312233e-09
 1.781089e-08
 2.850298e-08
 3.912216e-08
 4.816945e-08
 5.501196e-08
 6.009255e-08
 6.434321e-08
 6.831687e-08
 7.101709e-08
 6.759961e-08
 4.546359e-08
 -1.650022e-08
 -1.355986e-07
 -3.123150e-07
 -3.791032e-07
 -1.044905e-07
 1.458586e-07
 1.039238e-07
 2.746520e-08
 -3.634145e-09
 -1.650121e-08
 -3.423051e-08
 -6.509562e-08
 -1.063335e-07
 -1.490530e-07
 -1.868951e-07
 -2.449897e-07
 -4.254537e-07
 -1.514122e-06
 -2.399805e-07
 6.336290e-07
 2.555781e-07
 5.526583e-07
 5.910164e-07
 3.739930e-07
 7.483435e-07
 -2.475342e-08
 -1.205069e-06
 -2.933391e-07
 -3.241773e-07
 -2.008254e-07
 7.320750e-07
 7.973874e-08
 -1.284780e-06
 -2.630440e-07
 -3.238842e-08
 8.385557e-08
 7.556495e-08
 0.000000e+00
 0.000000e+00
 7.683923e-09
 1.871728e-08
 3.323431e-08
 4.790710e-08
 5.898572e-08
 6.517339e-08
 6.758872e-08
 6.796212e-08
 6.707786e-08
 6.382458e-08
 5.430560e-08
 3.098909e-08
 -1.750871e-08
 -1.106825e-07
 -3.172978e-07
 -1.415270e-06
 -1.167393e-07
 7.820897e-07
 1.421101e-07
 -9.990015e-10
 -1.360259e-08
 -1.237445e-09
 -1.218903e-08
 -5.339693e-08
 -1.149095e-07
 -1.768298e-07
 -1.930653e-07
 -1.522920e-07
 -1.695591e-07
 -2.638126e-07
 1.725894e-05
 -1.194275e-06
 -9.789614e-07
 1.120478e-06
 1.298335e-06
 3.502101e-07
 -9.483578e-07
 -1.814450e-08
 5.015784e-07
 -2.251851e-07
 -4.670022e-07
 -1.454735e-06
 -1.424762e-08
 7.017505e-07
 -2.743765e-07
 -3.941442e-07
 -1.882858e-08
 2.579422e-07
 1.739843e-07
 0.000000e+00
 0.000000e+00
 3.075541e-09
 1.544736e-08
 3.774879e-08
 6.080127e-08
 7.514697e-08
 7.919135e-08
 7.694785e-08
 7.252422e-08
 6.774917e-08
 6.226178e-08
 5.417660e-08
 4.101000e-08
 2.142388e-08
 -1.970430e-09
 -1.675570e-08
 -7.585805e-08
 1.735083e-05
 -1.449773e-07
 -1.468088e-07
 -1.389668e-07
 -4.148481e-08
 4.537255e-08
 4.228168e-08
 -2.122362e-08
 -1.159850e-07
 -2.526377e-07
 -2.887194e-07
 4.319753e-09
 2.684052e-07
 -1.771107e-07
 1.948602e-07
 -2.508051e-07
 1.758617e-05
 1.758014e-05
 1.680958e-07
 2.073793e-07
 1.046792e-07
 1.740254e-05
 -2.348665e-07
 -3.198183e-07
 -4.252646e-07
 -4.752815e-07
 1.721877e-05
 -1.466820e-07
 -3.754498e-07
 -1.413715e-06
 2.292365e-08
 9.656661e-07
 2.740339e-07
 0.000000e+00
 0.000000e+00
 -1.248426e-08
 2.054576e-10
 4.152503e-08
 8.411412e-08
 1.026123e-07
 9.938215e-08
 8.803886e-08
 7.706664e-08
 6.887575e-08
 6.317167e-08
 5.928824e-08
 5.808423e-08
 6.541971e-08
 1.022845e-07
 2.448972e-07
 8.561363e-07
 -9.444107e-08
 -1.478345e-06
 -5.281945e-07
 -3.921398e-07
 -5.391893e-08
 2.091430e-07
 1.523519e-07
 3.387798e-08
 -7.683688e-08
 -2.609196e-07
 -1.298128e-06
 1.070298e-07
 1.176119e-06
 6.754351e-07
 1.802607e-05
 1.084820e-06
 8.248732e-07
 -1.321910e-06
 -1.419401e-06
 4.731077e-08
 8.691593e-07
 -7.533529e-08
 -1.476942e-06
 -4.747563e-07
 -3.470428e-07
 -7.473703e-07
 -3.762605e-07
 -9.077537e-07
 -4.846775e-07
 -1.310435e-07
 1.768110e-05
 2.021600e-07
 1.154934e-07
 0.000000e+00
 0.000000e+00
 -5.691243e-08
 -5.060693e-08
 4.467243e-08
 1.378957e-07
 1.533770e-07
 1.262773e-07
 9.769187e-08
 7.843029e-08
 6.746745e-08
 6.247903e-08
 6.242093e-08
 6.860022e-08
 8.639041e-08
 1.280223e-07
 2.091567e-07
 2.444635e-07
 -3.008187e-08
 -3.732619e-07
 -5.106790e-07
 -1.461459e-06
 -8.033321e-08
 8.626008e-07
 2.367715e-07
 7.199090e-08
 9.362409e-09
 -2.104842e-10
 2.153431e-08
 1.763694e-05
 3.956976e-07
 1.105302e-06
 4.615503e-07
 -6.559782e-07
 1.051612e-08
 -4.476238e-07
 -3.549477e-07
 1.178895e-07
 2.616120e-07
 -3.102146e-08
 -3.597325e-07
 -3.451195e-07
 -1.862364e-07
 -1.327920e-07
 1.710417e-05
 -7.750314e-07
 -1.638620e-06
 6.866815e-07
 9.927187e-07
 -9.636550e-07
 -1.075631e-07
 0.000000e+00
 0.000000e+00
 -1.664695e-07
 -2.202112e-07
 5.427308e-08
 2.969926e-07
 2.428790e-07
 1.483934e-07
 9.663819e-08
 7.145679e-08
 6.032196e-08
 5.722585e-08
 5.995111e-08
 6.866251e-08
 8.511305e-08
 1.101561e-07
 1.330645e-07
 1.127667e-07
 1.383712e-08
 -8.791887e-08
 -9.500530e-08
 -9.015877e-08
 1.740785e-05
 -2.044914e-08
 3.187451e-08
 3.758621e-08
 6.203613e-08
 1.487849e-07
 8.003373e-07
 2.133626e-07
 -8.899998e-07
 -8.619929e-07
 2.777475e-07
 8.201787e-07
 -8.984988e-08
 -1.398452e-06
 -1.755897e-07
 7.729968e-07
 1.757331e-07
 -3.977401e-08
 -1.687930e-07
 -1.839461e-07
 -9.092627e-08
 5.115336e-07
 -2.366570e-07
 -1.523419e-06
 -1.540533e-06
 1.741072e-05
 7.093257e-07
 -8.126834e-08
 -1.365433e-07
 0.000000e+00
 0.000000e+00
 -2.173340e-07
 -1.300953e-06
 1.370786e-08
 9.251453e-07
 2.873223e-07
 1.239216e-07
 7.061144e-08
 5.152077e-08
 4.572024e-08
 4.652768e-08
 5.178927e-08
 6.102099e-08
 7.390813e-08
 8.814900e-08
 9.627081e-08
 8.725447e-08
 6.551065e-08
 7.717979e-08
 2.258739e-07
 8.756328e-07
 -1.276032e-08
 -1.305054e-06
 -2.083973e-07
 -7.426231e-09
 8.008631e-08
 7.308899e-08
 -8.762923e-07
 2.673676e-07
 9.677271e-07
 3.312161e-07
 1.763811e-05
 4.304414e-08
 -6.452840e-09
 -1.062652e-07
 1.732582e-05
 -1.241333e-07
 -8.148072e-08
 -1.014883e-07
 -1.136005e-07
 -1.100184e-07
 -1.599236e-07
 -1.156306e-06
 -6.061329e-08
 7.043107e-07
 6.849970e-07
 1.717203e-05
 -1.601460e-06
 -4.246934e-07
 -1.467979e-07
 0.000000e+00
 0.000000e+00
 2.045969e-08
 -5.285496e-09
 1.745584e-05
 -1.231140e-09
 2.941330e-08
 1.685427e-08
 1.677576e-08
 2.009921e-08
 2.512883e-08
 3.162599e-08
 3.970629e-08
 4.944682e-08
 6.042236e-08
 7.107569e-08
 7.873732e-08
 8.259654e-08
 9.087153e-08
 1.261970e-07
 2.152416e-07
 2.771629e-07
 5.077036e-08
 -2.052096e-07
 -1.376296e-07
 2.639877e-08
 1.524984e-07
 2.681670e-07
 2.972572e-07
 1.775830e-05
 3.873566e-07
 1.027774e-06
 9.609741e-08
 -1.216271e-06
 -3.202107e-08
 7.391890e-07
 -1.349308e-07
 -1.433638e-06
 -3.493403e-07
 -1.656172e-07
 -8.547585e-08
 -1.957073e-08
 5.299040e-08
 4.388398e-08
 1.747563e-05
 1.078367e-07
 7.192378e-07
 -5.153630e-07
 -2.029723e-06
 -5.510361e-07
 -1.467663e-08
 0.000000e+00
 0.000000e+00
 2.212537e-07
 8.822765e-07
 -2.050136e-08
 -1.336413e-06
 -2.677625e-07
 -9.845258e-08
 -3.971805e-08
 -1.286211e-08
 3.117500e-09
 1.513848e-08
 2.588759e-08
 3.644010e-08
 4.699235e-08
 5.714516e-08
 6.652704e-08
 7.631748e-08
 9.089909e-08
 1.158657e-07
 1.450223e-07
 1.391289e-07
 6.202670e-08
 -1.251319e-08
 5.976775e-09
 9.732692e-08
 2.312314e-07
 4.634447e-07
 1.149824e-06
 2.745701e-07
 -9.814143e-07
 1.177551e-07
 3.469172e-08
 -1.739353e-07
 -5.783302e-08
 9.553855e-08
 -1.003734e-07
 -3.544152e-07
 -2.987862e-07
 -1.553468e-07
 -5.187174e-08
 5.997725e-08
 2.640877e-07
 9.189119e-07
 2.568508e-09
 -1.329089e-06
 -4.172285e-07
 -7.701275e-07
 -1.839223e-06
 -2.099978e-07
 7.831236e-07
 0.000000e+00
 0.000000e+00
 1.478843e-07
 2.278769e-07
 -5.362003e-09
 -2.834220e-07
 -2.498237e-07
 -1.330123e-07
 -7.086290e-08
 -3.669487e-08
 -1.549897e-08
 -3.052133e-10
 1.212992e-08
 2.332508e-08
 3.393598e-08
 4.422510e-08
 5.452686e-08
 6.573618e-08
 7.917854e-08
 9.451907e-08
 1.054723e-07
 9.973353e-08
 7.531291e-08
 5.805099e-08
 7.790302e-08
 1.399465e-07
 2.395524e-07
 3.788267e-07
 4.673875e-07
 2.472200e-07
 -2.299625e-08
 -2.165713e-08
 -9.599989e-09
 -5.061372e-08
 -3.974560e-08
 -2.831136e-08
 -9.321645e-08
 -1.699462e-07
 -1.665074e-07
 -1.040836e-07
 -2.417741e-08
 7.192809e-08
 1.979146e-07
 2.663361e-07
 1.086892e-08
 -3.386256e-07
 -5.390569e-07
 -1.588941e-06
 -2.766506e-07
 1.818353e-05
 1.488346e-07
 0.000000e+00
 0.000000e+00
 5.530629e-08
 5.766182e-08
 -2.836362e-08
 -1.264580e-07
 -1.462512e-07
 -1.133591e-07
 -7.652007e-08
 -4.880317e-08
 -2.866828e-08
 -1.324916e-08
 -5.221096e-10
 1.072759e-08
 2.120950e-08
 3.139862e-08
 4.174670e-08
 5.273578e-08
 6.451607e-08
 7.597022e-08
 8.399679e-08
 8.539467e-08
 8.238930e-08
 8.544582e-08
 1.060327e-07
 1.477729e-07
 2.054688e-07
 2.606097e-07
 2.660321e-07
 1.815121e-07
 7.473026e-08
 2.405545e-08
 1.992598e-09
 -1.752892e-08
 -2.788647e-08
 -4.040817e-08
 -6.880756e-08
 -9.528973e-08
 -9.324226e-08
 -6.086218e-08
 -1.019725e-08
 4.958169e-08
 1.033585e-07
 1.069794e-07
 1.800711e-08
 -1.059011e-07
 -1.898132e-07
 -1.042524e-07
 1.826112e-05
 1.520603e-07
 -1.124667e-06
 0.000000e+00
 0.000000e+00
 1.317553e-08
 3.362357e-09
 -3.518896e-08
 -7.770096e-08
 -9.583416e-08
 -8.898924e-08
 -7.156988e-08
 -5.332485e-08
 -3.729930e-08
 -2.363831e-08
 -1.177928e-08
 -1.140023e-09
 8.775324e-09
 1.842970e-08
 2.829024e-08
 3.873700e-08
 4.977627e-08
 6.068580e-08
 7.010627e-08
 7.722348e-08
 8.362958e-08
 9.364601e-08
 1.115950e-07
 1.381429e-07
 1.680443e-07
 1.885431e-07
 1.817275e-07
 1.411049e-07
 8.777498e-08
 4.655219e-08
 1.945851e-08
 3.041451e-11
 -1.478266e-08
 -2.897331e-08
 -4.450390e-08
 -5.524733e-08
 -5.259330e-08
 -3.455782e-08
 -5.641688e-09
 2.716666e-08
 5.451427e-08
 6.577978e-08
 6.236453e-08
 6.940485e-08
 1.119093e-07
 -2.222309e-07
 2.448626e-07
 -3.806297e-07
 -1.666205e-07
 0.000000e+00
 0.000000e+00
 -3.349358e-09
 -1.542842e-08
 -3.722606e-08
 -5.984151e-08
 -7.288777e-08
 -7.370775e-08
 -6.624215e-08
 -5.522243e-08
 -4.348745e-08
 -3.223571e-08
 -2.183447e-08
 -1.228860e-08
 -3.393541e-09
 5.246343e-09
 1.418926e-08
 2.401343e-08
 3.502498e-08
 4.695067e-08
 5.896454e-08
 7.032739e-08
 8.128727e-08
 9.323958e-08
 1.075709e-07
 1.238717e-07
 1.386498e-07
 1.454130e-07
 1.375324e-07
 1.141660e-07
 8.308131e-08
 5.389115e-08
 3.051927e-08
 1.237469e-08
 -2.103584e-09
 -1.435907e-08
 -2.445330e-08
 -3.009506e-08
 -2.851543e-08
 -1.936776e-08
 -5.341627e-09
 9.534626e-09
 2.355793e-08
 4.473807e-08
 9.628694e-08
 2.035595e-07
 3.758873e-07
 4.451210e-07
 1.765096e-05
 -1.658831e-07
 -1.576839e-07
 0.000000e+00
 0.000000e+00
 -9.720667e-09
 -2.245528e-08
 -3.816094e-08
 -5.324797e-08
 -6.339515e-08
 -6.670297e-08
 -6.406723e-08
 -5.755683e-08
 -4.906699e-08
 -3.993125e-08
 -3.100283e-08
 -2.275408e-08
 -1.527673e-08
 -8.231761e-09
 -8.366132e-10
 7.996696e-09
 1.924705e-08
 3.313034e-08
 4.866105e-08
 6.406977e-08
 7.797063e-08
 9.013737e-08
 1.010300e-07
 1.105471e-07
 1.171222e-07
 1.179581e-07
 1.106334e-07
 9.528121e-08
 7.518477e-08
 5.462035e-08
 3.631223e-08
 2.103619e-08
 8.576553e-09
 -1.403003e-09
 -8.738630e-09
 -1.265582e-08
 -1.257779e-08
 -9.312030e-09
 -5.634863e-09
 -5.690584e-09
 -1.131470e-08
 -5.986389e-09
 7.064427e-08
 2.713152e-07
 5.746940e-07
 1.224789e-06
 1.866864e-07
 -1.279306e-06
 -2.492651e-07
 0.000000e+00
 0.000000e+00
 -1.249046e-08
 -2.580454e-08
 -3.958152e-08
 -5.210094e-08
 -6.126988e-08
 -6.581836e-08
 -6.570574e-08
 -6.176527e-08
 -5.521368e-08
 -4.735945e-08
 -3.942953e-08
 -3.237544e-08
 -2.664965e-08
 -2.200085e-08
 -1.730986e-08
 -1.056855e-08
 6.082423e-10
 1.750450e-08
 3.855595e-08
 5.955606e-08
 7.652707e-08
 8.820366e-08
 9.558654e-08
 9.991722e-08
 1.013712e-07
 9.913659e-08
 9.238701e-08
 8.131803e-08
 6.741475e-08
 5.272974e-08
 3.892004e-08
 2.686552e-08
 1.687215e-08
 9.042913e-09
 3.537632e-09
 5.365934e-10
 -1.857231e-10
 4.641627e-11
 -2.061818e-09
 -1.328631e-08
 -4.716117e-08
 -1.261595e-07
 -1.040442e-07
 2.604609e-07
 6.207403e-07
 6.138133e-07
 2.335953e-07
 -1.461194e-07
 -1.480015e-07
 0.000000e+00
 0.000000e+00
 -1.420689e-08
 -2.842543e-08
 -4.219152e-08
 -5.446988e-08
 -6.399426e-08
 -6.974201e-08
 -7.122819e-08
 -6.859677e-08
 -6.265086e-08
 -5.481851e-08
 -4.689640e-08
 -4.055031e-08
 -3.679860e-08
 -3.565041e-08
 -3.573832e-08
 -3.373437e-08
 -2.428591e-08
 -2.816201e-09
 2.855457e-08
 5.963035e-08
 8.080235e-08
 9.057310e-08
 9.297400e-08
 9.197368e-08
 8.930401e-08
 8.502472e-08
 7.870832e-08
 7.029079e-08
 6.033908e-08
 4.981609e-08
 3.967379e-08
 3.060317e-08
 2.302152e-08
 1.718055e-08
 1.324951e-08
 1.126938e-08
 1.093690e-08
 1.121553e-08
 9.580243e-09
 -2.712168e-10
 -3.761775e-08
 -1.777623e-07
 -1.205085e-06
 1.654394e-07
 1.121828e-06
 4.700792e-07
 1.962439e-07
 2.051402e-08
 -2.992501e-08
 0.000000e+00
 0.000000e+00
 -1.582008e-08
 -3.138945e-08
 -4.624701e-08
 -5.964019e-08
 -7.059145e-08
 -7.803276e-08
 -8.097886e-08
 -7.885388e-08
 -7.204426e-08
 -6.234572e-08
 -5.267305e-08
 -4.596188e-08
 -4.412465e-08
 -4.773379e-08
 -5.583774e-08
 -6.433377e-08
 -6.244190e-08
 -3.478351e-08
 1.899508e-08
 7.135371e-08
 9.746207e-08
 1.001633e-07
 9.331283e-08
 8.541121e-08
 7.877723e-08
 7.302801e-08
 6.725131e-08
 6.086849e-08
 5.382704e-08
 4.647067e-08
 3.930690e-08
 3.282515e-08
 2.742038e-08
 2.339193e-08
 2.095734e-08
 2.023913e-08
 2.122981e-08
 2.379989e-08
 2.787453e-08
 3.401677e-08
 4.515233e-08
 7.324353e-08
 6.661392e-08
 1.755644e-05
 1.242402e-07
 1.505155e-07
 9.340590e-08
 3.629077e-08
 5.319609e-09
 0.000000e+00
 0.000000e+00
 -1.764467e-08
 -3.501204e-08
 -5.172772e-08
 -6.723723e-08
 -8.070813e-08
 -9.087845e-08
 -9.596166e-08
 -9.405398e-08
 -8.454149e-08
 -6.984808e-08
 -5.529013e-08
 -4.626747e-08
 -4.579045e-08
 -5.488591e-08
 -7.435361e-08
 -1.038462e-07
 -1.288567e-07
 -9.940162e-08
 1.157649e-08
 1.156840e-07
 1.390549e-07
 1.178565e-07
 9.361722e-08
 7.719028e-08
 6.731291e-08
 6.113133e-08
 5.649665e-08
 5.217345e-08
 4.765533e-08
 4.292625e-08
 3.824002e-08
 3.395389e-08
 3.043026e-08
 2.799453e-08
 2.692617e-08
 2.747533e-08
 2.994257e-08
 3.496204e-08
 4.441048e-08
 6.435464e-08
 1.155213e-07
 2.760702e-07
 9.184219e-07
 2.978742e-08
 -1.250716e-06
 -1.594346e-07
 -3.542072e-09
 1.892710e-08
 1.037200e-08
 0.000000e+00
 0.000000e+00
 -1.972972e-08
 -3.925658e-08
 -5.837038e-08
 -7.680158e-08
 -9.402528e-08
 -1.087584e-07
 -1.181296e-07
 -1.174244e-07
 -1.028010e-07
 -7.721643e-08
 -5.186813e-08
 -3.765176e-08
 -3.790676e-08
 -5.172245e-08
 -8.144786e-08
 -1.392114e-07
 -2.501737e-07
 -2.753527e-07
 1.525401e-08
 2.681867e-07
 2.212805e-07
 1.322628e-07
 8.468219e-08
 6.233965e-08
 5.230938e-08
 4.784639e-08
 4.555282e-08
 4.375449e-08
 4.173794e-08
 3.935420e-08
 3.677231e-08
 3.431309e-08
 3.234410e-08
 3.122351e-08
 3.128124e-08
 3.283501e-08
 3.626665e-08
 4.224213e-08
 5.228951e-08
 7.022802e-08
 1.050703e-07
 1.703468e-07
 1.944335e-07
 -3.254466e-08
 -2.226068e-07
 -1.100011e-07
 4.575433e-09
 2.245803e-08
 1.292612e-08
 0.000000e+00
 0.000000e+00
 -2.201740e-08
 -4.390784e-08
 -6.566178e-08
 -8.745987e-08
 -1.095629e-07
 -1.316062e-07
 -1.503768e-07
 -1.559690e-07
 -1.337935e-07
 -8.424597e-08
 -3.565070e-08
 -1.376494e-08
 -1.707477e-08
 -3.425913e-08
 -6.323144e-08
 -1.218903e-07
 -2.883543e-07
 -1.351235e-06
 -2.586246e-08
 8.925072e-07
 2.600618e-07
 1.012981e-07
 5.205307e-08
 3.620776e-08
 3.225140e-08
 3.265689e-08
 3.426507e-08
 3.564432e-08
 3.623867e-08
 3.600392e-08
 3.518832e-08
 3.417951e-08
 3.340395e-08
 3.327073e-08
 3.414752e-08
 3.635547e-08
 4.016909e-08
 4.578489e-08
 5.310815e-08
 6.073339e-08
 6.172911e-08
 2.894754e-08
 -1.068221e-07
 -2.437420e-07
 -7.659916e-08
 1.340286e-07
 1.045845e-07
 4.399009e-08
 1.607125e-08
 0.000000e+00
 0.000000e+00
 -2.445247e-08
 -4.873124e-08
 -7.293622e-08
 -9.774900e-08
 -1.247646e-07
 -1.565252e-07
 -1.943108e-07
 -2.247666e-07
 -1.986939e-07
 -8.962287e-08
 1.357774e-08
 3.668229e-08
 1.567817e-08
 -7.792943e-09
 -2.221981e-08
 -2.663340e-08
 -1.424320e-08
 -4.238856e-08
 1.741897e-05
 -3.634290e-08
 -2.864386e-09
 -1.175668e-08
 -7.620802e-09
 -5.323966e-11
 8.420929e-09
 1.651533e-08
 2.334197e-08
 2.840128e-08
 3.161564e-08
 3.325626e-08
 3.380275e-08
 3.380891e-08
 3.381402e-08
 3.429998e-08
 3.567537e-08
 3.826071e-08
 4.223686e-08
 4.746845e-08
 5.295357e-08
 5.517891e-08
 4.337754e-08
 -1.368673e-08
 -2.101991e-07
 -1.338318e-06
 -8.599940e-08
 7.888255e-07
 1.573640e-07
 3.057482e-08
 1.018181e-08
 0.000000e+00
 0.000000e+00
 -2.710576e-08
 -5.372387e-08
 -7.975834e-08