<VTKFile type="UnstructuredGrid"  version="0.1"   >
<UnstructuredGrid>  
<Piece  NumberOfPoints="     2601"  NumberOfCells="     5000">  
<Points>  
<DataArray  type="Float64"  NumberOfComponents="3"  format="ascii">  
 0.000000 0.000000 0.000000 
 0.020000 0.000000 0.000000 
 0.040000 0.000000 0.000000 
 0.060000 0.000000 0.000000 
 0.080000 0.000000 0.000000 
 0.100000 0.000000 0.000000 
 0.120000 0.000000 0.000000 
 0.140000 0.000000 0.000000 
 0.160000 0.000000 0.000000 
 0.180000 0.000000 0.000000 
 0.200000 0.000000 0.000000 
 0.220000 0.000000 0.000000 
 0.240000 0.000000 0.000000 
 0.260000 0.000000 0.000000 
 0.280000 0.000000 0.000000 
 0.300000 0.000000 0.000000 
 0.320000 0.000000 0.000000 
 0.340000 0.000000 0.000000 
 0.360000 0.000000 0.000000 
 0.380000 0.000000 0.000000 
 0.400000 0.000000 0.000000 
 0.420000 0.000000 0.000000 
 0.440000 0.000000 0.000000 
 0.460000 0.000000 0.000000 
 0.480000 0.000000 0.000000 
 0.500000 0.000000 0.000000 
 0.520000 0.000000 0.000000 
 0.540000 0.000000 0.000000 
 0.560000 0.000000 0.000000 
 0.580000 0.000000 0.000000 
 0.600000 0.000000 0.000000 
 0.620000 0.000000 0.000000 
 0.640000 0.000000 0.000000 
 0.660000 0.000000 0.000000 
 0.680000 0.000000 0.000000 
 0.700000 0.000000 0.000000 
 0.720000 0.000000 0.000000 
 0.740000 0.000000 0.000000 
 0.760000 0.000000 0.000000 
 0.780000 0.000000 0.000000 
 0.800000 0.000000 0.000000 
 0.820000 0.000000 0.000000 
 0.840000 0.000000 0.000000 
 0.860000 0.000000 0.000000 
 0.880000 0.000000 0.000000 
 0.900000 0.000000 0.000000 
 0.920000 0.000000 0.000000 
 0.940000 0.000000 0.000000 
 0.960000 0.000000 0.000000 
 0.980000 0.000000 0.000000 
 1.000000 0.000000 0.000000 
 0.000000 0.020000 0.000000 
 0.020000 0.020000 0.000000 
 0.040000 0.020000 0.000000 
 0.060000 0.020000 0.000000 
 0.080000 0.020000 0.000000 
 0.100000 0.020000 0.000000 
 0.120000 0.020000 0.000000 
 0.140000 0.020000 0.000000 
 0.160000 0.020000 0.000000 
 0.180000 0.020000 0.000000 
 0.200000 0.020000 0.000000 
 0.220000 0.020000 0.000000 
 0.240000 0.020000 0.000000 
 0.260000 0.020000 0.000000 
 0.280000 0.020000 0.000000 
 0.300000 0.020000 0.000000 
 0.320000 0.020000 0.000000 
 0.340000 0.020000 0.000000 
 0.360000 0.020000 0.000000 
 0.380000 0.020000 0.000000 
 0.400000 0.020000 0.000000 
 0.420000 0.020000 0.000000 
 0.440000 0.020000 0.000000 
 0.460000 0.020000 0.000000 
 0.480000 0.020000 0.000000 
 0.500000 0.020000 0.000000 
 0.520000 0.020000 0.000000 
 0.540000 0.020000 0.000000 
 0.560000 0.020000 0.000000 
 0.580000 0.020000 0.000000 
 0.600000 0.020000 0.000000 
 0.620000 0.020000 0.000000 
 0.640000 0.020000 0.000000 
 0.660000 0.020000 0.000000 
 0.680000 0.020000 0.000000 
 0.700000 0.020000 0.000000 
 0.720000 0.020000 0.000000 
 0.740000 0.020000 0.000000 
 0.760000 0.020000 0.000000 
 0.780000 0.020000 0.000000 
 0.800000 0.020000 0.000000 
 0.820000 0.020000 0.000000 
 0.840000 0.020000 0.000000 
 0.860000 0.020000 0.000000 
 0.880000 0.020000 0.000000 
 0.900000 0.020000 0.000000 
 0.920000 0.020000 0.000000 
 0.940000 0.020000 0.000000 
 0.960000 0.020000 0.000000 
 0.980000 0.020000 0.000000 
 1.000000 0.020000 0.000000 
 0.000000 0.040000 0.000000 
 0.020000 0.040000 0.000000 
 0.040000 0.040000 0.000000 
 0.060000 0.040000 0.000000 
 0.080000 0.040000 0.000000 
 0.100000 0.040000 0.000000 
 0.120000 0.040000 0.000000 
 0.140000 0.040000 0.000000 
 0.160000 0.040000 0.000000 
 0.180000 0.040000 0.000000 
 0.200000 0.040000 0.000000 
 0.220000 0.040000 0.000000 
 0.240000 0.040000 0.000000 
 0.260000 0.040000 0.000000 
 0.280000 0.040000 0.000000 
 0.300000 0.040000 0.000000 
 0.320000 0.040000 0.000000 
 0.340000 0.040000 0.000000 
 0.360000 0.040000 0.000000 
 0.380000 0.040000 0.000000 
 0.400000 0.040000 0.000000 
 0.420000 0.040000 0.000000 
 0.440000 0.040000 0.000000 
 0.460000 0.040000 0.000000 
 0.480000 0.040000 0.000000 
 0.500000 0.040000 0.000000 
 0.520000 0.040000 0.000000 
 0.540000 0.040000 0.000000 
 0.560000 0.040000 0.000000 
 0.580000 0.040000 0.000000 
 0.600000 0.040000 0.000000 
 0.620000 0.040000 0.000000 
 0.640000 0.040000 0.000000 
 0.660000 0.040000 0.000000 
 0.680000 0.040000 0.000000 
 0.700000 0.040000 0.000000 
 0.720000 0.040000 0.000000 
 0.740000 0.040000 0.000000 
 0.760000 0.040000 0.000000 
 0.780000 0.040000 0.000000 
 0.800000 0.040000 0.000000 
 0.820000 0.040000 0.000000 
 0.840000 0.040000 0.000000 
 0.860000 0.040000 0.000000 
 0.880000 0.040000 0.000000 
 0.900000 0.040000 0.000000 
 0.920000 0.040000 0.000000 
 0.940000 0.040000 0.000000 
 0.960000 0.040000 0.000000 
 0.980000 0.040000 0.000000 
 1.000000 0.040000 0.000000 
 0.000000 0.060000 0.000000 
 0.020000 0.060000 0.000000 
 0.040000 0.060000 0.000000 
 0.060000 0.060000 0.000000 
 0.080000 0.060000 0.000000 
 0.100000 0.060000 0.000000 
 0.120000 0.060000 0.000000 
 0.140000 0.060000 0.000000 
 0.160000 0.060000 0.000000 
 0.180000 0.060000 0.000000 
 0.200000 0.060000 0.000000 
 0.220000 0.060000 0.000000 
 0.240000 0.060000 0.000000 
 0.260000 0.060000 0.000000 
 0.280000 0.060000 0.000000 
 0.300000 0.060000 0.000000 
 0.320000 0.060000 0.000000 
 0.340000 0.060000 0.000000 
 0.360000 0.060000 0.000000 
 0.380000 0.060000 0.000000 
 0.400000 0.060000 0.000000 
 0.420000 0.060000 0.000000 
 0.440000 0.060000 0.000000 
 0.460000 0.060000 0.000000 
 0.480000 0.060000 0.000000 
 0.500000 0.060000 0.000000 
 0.520000 0.060000 0.000000 
 0.540000 0.060000 0.000000 
 0.560000 0.060000 0.000000 
 0.580000 0.060000 0.000000 
 0.600000 0.060000 0.000000 
 0.620000 0.060000 0.000000 
 0.640000 0.060000 0.000000 
 0.660000 0.060000 0.000000 
 0.680000 0.060000 0.000000 
 0.700000 0.060000 0.000000 
 0.720000 0.060000 0.000000 
 0.740000 0.060000 0.000000 
 0.760000 0.060000 0.000000 
 0.780000 0.060000 0.000000 
 0.800000 0.060000 0.000000 
 0.820000 0.060000 0.000000 
 0.840000 0.060000 0.000000 
 0.860000 0.060000 0.000000 
 0.880000 0.060000 0.000000 
 0.900000 0.060000 0.000000 
 0.920000 0.060000 0.000000 
 0.940000 0.060000 0.000000 
 0.960000 0.060000 0.000000 
 0.980000 0.060000 0.000000 
 1.000000 0.060000 0.000000 
 0.000000 0.080000 0.000000 
 0.020000 0.080000 0.000000 
 0.040000 0.080000 0.000000 
 0.060000 0.080000 0.000000 
 0.080000 0.080000 0.000000 
 0.100000 0.080000 0.000000 
 0.120000 0.080000 0.000000 
 0.140000 0.080000 0.000000 
 0.160000 0.080000 0.000000 
 0.180000 0.080000 0.000000 
 0.200000 0.080000 0.000000 
 0.220000 0.080000 0.000000 
 0.240000 0.080000 0.000000 
 0.260000 0.080000 0.000000 
 0.280000 0.080000 0.000000 
 0.300000 0.080000 0.000000 
 0.320000 0.080000 0.000000 
 0.340000 0.080000 0.000000 
 0.360000 0.080000 0.000000 
 0.380000 0.080000 0.000000 
 0.400000 0.080000 0.000000 
 0.420000 0.080000 0.000000 
 0.440000 0.080000 0.000000 
 0.460000 0.080000 0.000000 
 0.480000 0.080000 0.000000 
 0.500000 0.080000 0.000000 
 0.520000 0.080000 0.000000 
 0.540000 0.080000 0.000000 
 0.560000 0.080000 0.000000 
 0.580000 0.080000 0.000000 
 0.600000 0.080000 0.000000 
 0.620000 0.080000 0.000000 
 0.640000 0.080000 0.000000 
 0.660000 0.080000 0.000000 
 0.680000 0.080000 0.000000 
 0.700000 0.080000 0.000000 
 0.720000 0.080000 0.000000 
 0.740000 0.080000 0.000000 
 0.760000 0.080000 0.000000 
 0.780000 0.080000 0.000000 
 0.800000 0.080000 0.000000 
 0.820000 0.080000 0.000000 
 0.840000 0.080000 0.000000 
 0.860000 0.080000 0.000000 
 0.880000 0.080000 0.000000 
 0.900000 0.080000 0.000000 
 0.920000 0.080000 0.000000 
 0.940000 0.080000 0.000000 
 0.960000 0.080000 0.000000 
 0.980000 0.080000 0.000000 
 1.000000 0.080000 0.000000 
 0.000000 0.100000 0.000000 
 0.020000 0.100000 0.000000 
 0.040000 0.100000 0.000000 
 0.060000 0.100000 0.000000 
 0.080000 0.100000 0.000000 
 0.100000 0.100000 0.000000 
 0.120000 0.100000 0.000000 
 0.140000 0.100000 0.000000 
 0.160000 0.100000 0.000000 
 0.180000 0.100000 0.000000 
 0.200000 0.100000 0.000000 
 0.220000 0.100000 0.000000 
 0.240000 0.100000 0.000000 
 0.260000 0.100000 0.000000 
 0.280000 0.100000 0.000000 
 0.300000 0.100000 0.000000 
 0.320000 0.100000 0.000000 
 0.340000 0.100000 0.000000 
 0.360000 0.100000 0.000000 
 0.380000 0.100000 0.000000 
 0.400000 0.100000 0.000000 
 0.420000 0.100000 0.000000 
 0.440000 0.100000 0.000000 
 0.460000 0.100000 0.000000 
 0.480000 0.100000 0.000000 
 0.500000 0.100000 0.000000 
 0.520000 0.100000 0.000000 
 0.540000 0.100000 0.000000 
 0.560000 0.100000 0.000000 
 0.580000 0.100000 0.000000 
 0.600000 0.100000 0.000000 
 0.620000 0.100000 0.000000 
 0.640000 0.100000 0.000000 
 0.660000 0.100000 0.000000 
 0.680000 0.100000 0.000000 
 0.700000 0.100000 0.000000 
 0.720000 0.100000 0.000000 
 0.740000 0.100000 0.000000 
 0.760000 0.100000 0.000000 
 0.780000 0.100000 0.000000 
 0.800000 0.100000 0.000000 
 0.820000 0.100000 0.000000 
 0.840000 0.100000 0.000000 
 0.860000 0.100000 0.000000 
 0.880000 0.100000 0.000000 
 0.900000 0.100000 0.000000 
 0.920000 0.100000 0.000000 
 0.940000 0.100000 0.000000 
 0.960000 0.100000 0.000000 
 0.980000 0.100000 0.000000 
 1.000000 0.100000 0.000000 
 0.000000 0.120000 0.000000 
 0.020000 0.120000 0.000000 
 0.040000 0.120000 0.000000 
 0.060000 0.120000 0.000000 
 0.080000 0.120000 0.000000 
 0.100000 0.120000 0.000000 
 0.120000 0.120000 0.000000 
 0.140000 0.120000 0.000000 
 0.160000 0.120000 0.000000 
 0.180000 0.120000 0.000000 
 0.200000 0.120000 0.000000 
 0.220000 0.120000 0.000000 
 0.240000 0.120000 0.000000 
 0.260000 0.120000 0.000000 
 0.280000 0.120000 0.000000 
 0.300000 0.120000 0.000000 
 0.320000 0.120000 0.000000 
 0.340000 0.120000 0.000000 
 0.360000 0.120000 0.000000 
 0.380000 0.120000 0.000000 
 0.400000 0.120000 0.000000 
 0.420000 0.120000 0.000000 
 0.440000 0.120000 0.000000 
 0.460000 0.120000 0.000000 
 0.480000 0.120000 0.000000 
 0.500000 0.120000 0.000000 
 0.520000 0.120000 0.000000 
 0.540000 0.120000 0.000000 
 0.560000 0.120000 0.000000 
 0.580000 0.120000 0.000000 
 0.600000 0.120000 0.000000 
[...]
<PointData  Scalars="U"> 
<DataArray  type="Float64"  Name="U"  format="ascii"> 
 0.000000e+00
 0.000000e+00
 0.000000e+00
 0.000000e+00
 0.000000e+00
 0.000000e+00
 0.000000e+00
 0.000000e+00
 0.000000e+00
 0.000000e+00
 0.000000e+00
 0.000000e+00
 0.000000e+00
 0.000000e+00
 0.000000e+00
 0.000000e+00
 0.000000e+00
 0.000000e+00
 0.000000e+00
 0.000000e+00
 0.000000e+00
 0.000000e+00
 0.000000e+00
 0.000000e+00
 0.000000e+00
 0.000000e+00
 0.000000e+00
 0.000000e+00
 0.000000e+00
 0.000000e+00
 0.000000e+00
 0.000000e+00
 0.000000e+00
 0.000000e+00
 0.000000e+00
 0.000000e+00
 0.000000e+00
 0.000000e+00
 0.000000e+00
 0.000000e+00
 0.000000e+00
 0.000000e+00
 0.000000e+00
 0.000000e+00
 0.000000e+00
 0.000000e+00
 0.000000e+00
 0.000000e+00
 0.000000e+00
 0.000000e+00
 0.000000e+00
 0.000000e+00
 -1.199941e-08
 -2.198537e-08
 -2.932673e-08
 -3.588978e-08
 -4.511786e-08
 -5.909695e-08
 -7.842599e-08
 -1.071330e-07
 -1.548485e-07
 -2.384284e-07
 -4.115120e-07
 -8.208937e-07
 -1.688660e-06
 -3.432274e-06
 -3.357848e-06
 -9.292651e-07
 -5.698208e-07
 -1.480683e-06
 -1.689228e-07
 7.075214e-07
 8.896100e-08
 -2.895047e-08
 -4.237250e-08
 -2.779685e-08
 7.851060e-09
 8.088409e-08
 2.221419e-07
 2.063315e-07
 1.721468e-05
 -1.684501e-06
 -4.387151e-07
 6.872623e-07
 2.620058e-07
 4.554367e-08
 -6.012762e-08
 -4.181805e-08
 -3.673852e-08
 -1.647600e-07
 -2.687149e-07
 -6.857651e-08
 1.423782e-07
 1.258922e-07
 8.794204e-08
 6.242981e-08
 4.590022e-08
 5.015461e-08
 5.894207e-08
 5.095436e-08
 2.612537e-08
 0.000000e+00
 0.000000e+00
 -2.623784e-08
 -4.709531e-08
 -5.978387e-08
 -6.880318e-08
 -8.502071e-08
 -1.135244e-07
 -1.486454e-07
 -1.954942e-07
 -2.789397e-07
 -4.034714e-07
 -6.103010e-07
 -1.148276e-06
 -2.813783e-06
 -1.857124e-06
 -7.171603e-07
 -8.183678e-07
 -5.506623e-07
 -4.022727e-07
 1.716773e-05
 -2.211126e-07
 -1.463343e-07
 -1.286141e-07
 -1.045727e-07
 -7.355570e-08
 -1.905568e-08
 9.445065e-08
 3.389631e-07
 1.010339e-06
 -9.969148e-10
 -1.633314e-06
 1.574036e-05
 -2.801208e-07
 6.655450e-07
 -7.316693e-08
 -2.695166e-07
 -6.622164e-08
 8.550677e-08
 -1.842637e-07
 -1.421838e-06
 -2.360050e-07
 6.663406e-07
 1.889446e-07
 1.744430e-07
 1.188361e-07
 6.343958e-08
 9.507229e-08
 1.399943e-07
 1.193559e-07
 6.139952e-08
 0.000000e+00
 0.000000e+00
 -4.616373e-08
 -8.173756e-08
 -9.543783e-08
 -9.341242e-08
 -1.097540e-07
 -1.632174e-07
 -2.132676e-07
 -2.406113e-07
 -3.620242e-07
 -5.292681e-07
 -5.132947e-07
 -7.112152e-07
 -2.193937e-06
 1.624070e-05
 -3.453109e-07
 -7.077690e-07
 -4.749495e-07
 3.327820e-07
 -3.750820e-07
 -1.535511e-06
 -4.074863e-07
 -2.300715e-07
 -1.716676e-07
 -1.397964e-07
 -1.000383e-07
 -9.235337e-09
 1.928338e-07
 4.222177e-07
 3.777337e-07
 6.582399e-07
 -3.390465e-07
 1.591089e-05
 -4.362251e-07
 -3.894399e-07
 -1.437521e-06
 -1.231374e-07
 7.724816e-07
 9.882002e-08
 -2.098868e-07
 1.695991e-05
 -5.939077e-07
 -2.939212e-08
 3.933454e-07
 1.736576e-07
 -4.634513e-08
 1.286956e-07
 3.138122e-07
 2.213515e-07
 9.343983e-08
 0.000000e+00
 0.000000e+00
 -7.578173e-08
 -1.411507e-07
 -1.535573e-07
 -9.774289e-08
 -8.293516e-08
 -2.166662e-07
 -3.348987e-07
 -1.901768e-07
 -2.058906e-07
 -1.432502e-06
 -3.117262e-07
 5.350632e-07
 2.932843e-07
 1.655564e-05
 -2.252024e-06
 -1.041364e-06
 -7.488975e-07
 -5.387980e-07
 -3.814535e-07
 -3.403010e-07
 -3.075749e-07
 -2.483962e-07
 -2.182918e-07
 -2.118567e-07
 -2.255335e-07
 -2.353211e-07
 -8.678090e-08
 3.265499e-07
 5.633416e-07
 4.465557e-07
 6.210513e-07
 -3.695495e-07
 -1.442620e-06
 -3.125187e-07
 -2.044810e-07
 1.731446e-05
 -7.373056e-08
 1.024862e-07
 6.298591e-07
 -6.136445e-07
 -4.062295e-06
 -3.557201e-07
 1.603020e-06
 2.279337e-07
 -1.142832e-06
 7.274397e-08
 9.388432e-07
 2.735340e-07
 8.622565e-08
 0.000000e+00
 0.000000e+00
 -1.075060e-07
 -2.546153e-07
 -3.111403e-07
 -5.949324e-08
 1.190666e-07
 -1.221941e-07
 -1.316387e-06
 -9.262734e-08
 7.509214e-07
 1.315647e-08
 1.727593e-05
 -1.346471e-07
 4.231154e-07
 -8.086778e-07
 -2.330886e-06
 -1.117046e-06
 -8.731902e-07
 -1.772710e-06
 -4.382883e-07
 4.495808e-07
 -1.519943e-07
 -2.427846e-07
 -2.418844e-07
 -2.579639e-07
 -3.572022e-07
 -4.860006e-07
 -1.211814e-06
 3.817405e-07
 1.216835e-06
 3.339368e-07
 -1.030687e-06
 -1.444704e-07
 4.688777e-07
 3.495088e-08
 6.608535e-07
 -1.797668e-07
 -1.382105e-06
 -1.664944e-07
 8.208470e-08
 -7.254995e-08
 -3.708940e-07
 3.463279e-05
 -1.194349e-07
 3.218427e-08
 3.211498e-10
 1.745688e-05
 -5.930150e-09
 1.996243e-08
 3.825982e-09
 0.000000e+00
 0.000000e+00
 -9.925888e-08
 -2.903448e-07
 -1.363140e-06
 -3.701040e-08
 8.837420e-07
 2.562736e-07
 5.439542e-08
 1.747079e-05
 1.065863e-07
 7.187507e-07
 -2.449045e-07
 -1.590231e-06
 -6.717707e-07
 -9.175855e-07
 -9.641795e-07
 -6.467020e-07
 -4.739179e-07
 -4.533199e-07
 1.703112e-05
 -4.061709e-07
 -3.367935e-07
 -2.947286e-07
 -2.450183e-07
 -2.264711e-07
 -3.207770e-07
 -1.309295e-06
 3.427640e-08
 1.844217e-05
 3.623391e-07
 2.226561e-07
 4.389828e-08
 1.733560e-05
 -2.287058e-07
 -1.525997e-07
 -8.362697e-08
 -2.339124e-07
 -3.373579e-07
 -1.290702e-07
 9.109147e-08
 3.542975e-07
 1.582971e-06
 -1.264712e-07
 -2.577830e-06
 -2.284266e-07
 7.397536e-07
 -7.644563e-08
 -1.360893e-06
 -2.742767e-07
 -8.687249e-08
 0.000000e+00
 0.000000e+00
 -2.748141e-08
 -2.923358e-08
 -4.244515e-08
 1.747097e-05
 9.932069e-08
 3.016209e-07
 9.198807e-07
 1.220955e-08
 -1.260848e-06
 -1.861410e-07
 -3.124453e-07
 -6.251421e-07
 -8.186970e-07
 -1.920021e-06
 -6.666467e-07
 3.094356e-07
 -8.048460e-08
 4.834152e-07
 -4.127389e-07
 -1.695778e-06
 -5.795868e-07
 -3.502984e-07
 -2.215279e-07
 -1.108719e-07
 2.971795e-08
 2.256311e-07
 1.837421e-05
 4.972995e-08
 -1.181478e-06
 1.397051e-08
 7.652080e-07
 -1.632497e-07
 -1.521273e-06
 -4.904355e-07
 -4.225159e-07
 -4.445897e-07
 -1.864477e-07
 1.031667e-07
 1.434410e-07
 1.546952e-07
 2.064879e-07
 2.413073e-08
 -2.271576e-07
 -1.064155e-07
 9.363738e-08
 -7.725617e-08
 -3.175495e-07
 -2.539816e-07
 -1.054069e-07
 0.000000e+00
 0.000000e+00
 2.394602e-08
 1.589024e-07
 8.259239e-07
 3.479376e-08
 -1.145721e-06
 2.323354e-08
 2.118341e-07
 -6.257239e-09
 -2.895580e-07
 -3.059641e-07
 -3.195847e-07
 -4.017043e-07
 -4.409391e-07
 -4.995945e-07
 1.695323e-05
 -4.495958e-07
 -2.860432e-07
 -1.916329e-07
 -3.834846e-07
 -6.114179e-07
 -5.200795e-07
 -3.342882e-07
 -1.835510e-07
 -1.611077e-08
 2.694748e-07
 1.059074e-06
 2.481484e-07
 -1.272203e-06
 -4.343059e-07
 -1.557930e-07
 3.844097e-08
 -1.638771e-07
 -4.479278e-07
 -4.566449e-07
 -5.029810e-07
 -1.520629e-06
 -1.804745e-07
 7.583459e-07
 1.449982e-07
 -9.055953e-08
 -1.179823e-06
 -2.069564e-09
 7.541389e-07
 1.043872e-07
 -1.413356e-08
 -9.456104e-08
 -1.635081e-07
 -1.498168e-07
 -8.015725e-08
 0.000000e+00
 0.000000e+00
 -1.055968e-09
 -1.330608e-08
 1.970982e-08
 7.286828e-08
 5.644964e-08
 5.159874e-08
 4.502123e-08
 -5.625928e-08
 -1.754376e-07
 -2.336092e-07
 -2.549791e-07
 -2.464306e-07
 -1.195777e-07
 4.977713e-07
 -4.138178e-07
 -1.703883e-06
 -5.886080e-07
 -4.018803e-07
 -3.988550e-07
 -4.302040e-07
 -3.856588e-07
 -2.815021e-07
 -1.572657e-07
 -1.157797e-08
 1.729645e-07
 3.037322e-07
 8.331113e-08
 -2.603678e-07
 -2.995796e-07
 -1.865708e-07
 -1.261500e-07
 -1.728824e-07
 -2.461842e-07
 -2.467380e-07
 -1.905962e-07
 -1.829777e-07
 1.729773e-05
 -1.477669e-07
 -1.008356e-07
 -5.169759e-08
 3.576496e-10
 1.748621e-05
 -2.638342e-08
 -4.958981e-08
 -8.835290e-08
 -1.098521e-07
 -1.199560e-07
 -1.015385e-07
 -5.668244e-08
 0.000000e+00
 0.000000e+00
 -1.886072e-08
 -1.471387e-07
 -1.218801e-06
 1.423189e-08
 8.285563e-07
 1.608567e-07
 -4.939435e-09
 -8.634498e-08
 -1.504480e-07
 -1.906876e-07
 -2.043191e-07
 -1.854525e-07
 -1.169139e-07
 -7.875352e-08
 -3.263146e-07
 -5.983113e-07
 -5.505340e-07
 -4.299253e-07
 -3.814590e-07
 -3.560124e-07
 -3.112809e-07
 -2.391926e-07
 -1.495089e-07
 -5.116308e-08
 3.832599e-08
 6.766866e-08
 -1.337959e-08
 -1.341838e-07
 -1.838667e-07
 -1.689680e-07
 -1.497216e-07
 -1.514260e-07
 -1.478901e-07
 -8.998248e-08
 9.767034e-08
 7.621043e-07
 -1.348866e-07
 -1.460722e-06
 -4.297311e-07
 -1.203195e-07
 8.426985e-07
 1.638725e-07
 -1.235869e-06
 -2.800972e-07
 -1.674806e-07
 -1.325626e-07
 -1.101905e-07
 -8.182166e-08
 -4.380683e-08
 0.000000e+00
 0.000000e+00
 3.852471e-08
 7.477146e-08
 3.816619e-08
 1.745644e-05
 -5.259579e-08
 -5.888002e-08
 -9.708337e-08
 -1.250465e-07
 -1.526270e-07
 -1.736565e-07
 -1.825768e-07
 -1.779015e-07
 -1.696563e-07
 -1.979573e-07
 -2.983607e-07
 -3.985831e-07
 -4.148476e-07
 -3.795658e-07
 -3.424397e-07
 -3.086004e-07
 -2.671170e-07
 -2.133879e-07
 -1.510919e-07
 -8.885580e-08
 -4.140181e-08
 -2.905144e-08
 -6.000926e-08
 -1.090515e-07
 -1.407364e-07
 -1.474723e-07
 -1.423686e-07
 -1.318562e-07
 -1.044161e-07
 -3.829109e-08
 8.254242e-08
 1.651416e-07
 -6.071801e-08
 -3.523874e-07
 -4.248656e-07
 -1.282466e-06
 1.370702e-07
 8.113295e-07
 -1.177482e-07
 -2.572359e-07
 -1.954264e-07
 -1.471765e-07
 -1.087182e-07
 -7.301003e-08
 -3.689293e-08
 0.000000e+00
 0.000000e+00
 1.013202e-07
 2.887092e-07
 9.253917e-07
 -1.034065e-08
 -1.364260e-06
 -3.307416e-07
 -1.920342e-07
 -1.618369e-07
 -1.619388e-07
 -1.693119e-07
 -1.756116e-07
 -1.801286e-07
 -1.899285e-07
 -2.179868e-07
 -2.669588e-07
 -3.129078e-07
 -3.301448e-07
 -3.204961e-07
 -2.983431e-07
 -2.704869e-07
 -2.367014e-07
 -1.967654e-07
 -1.535986e-07
 -1.133132e-07
 -8.445429e-08
 -7.508647e-08
 -8.620531e-08
 -1.078322e-07
 -1.265319e-07
 -1.360535e-07
 -1.368208e-07
 -1.274412e-07
 -1.000834e-07
 -4.698883e-08
 1.986131e-08
 4.818682e-08
 -8.275403e-09
 -7.563139e-08
 -5.377374e-08
 -3.387552e-08
 1.742612e-05
 -1.256843e-07
 -2.030716e-07
 -2.403350e-07
 -2.038696e-07
 -1.524836e-07
 -1.052266e-07
 -6.508085e-08
 -3.092215e-08
 0.000000e+00
 0.000000e+00
 1.041313e-07
 2.261719e-07
 2.827402e-07
 2.002140e-08
 -2.921487e-07
 -2.928079e-07
 -2.077419e-07
 -1.743346e-07
 -1.658700e-07
 -1.671548e-07
 -1.717171e-07
 -1.785823e-07
 -1.905260e-07
 -2.109392e-07
 -2.380577e-07
 -2.624453e-07
 -2.743622e-07
 -2.718466e-07
 -2.586720e-07
 -2.384709e-07
 -2.130465e-07
 -1.839048e-07
 -1.536819e-07
 -1.264142e-07
 -1.067965e-07
 -9.837256e-08
 -1.011875e-07
 -1.111694e-07
 -1.228780e-07
 -1.329440e-07
 -1.400114e-07
 -1.406437e-07
 -1.244125e-07
 -7.784288e-08
 -8.065949e-09
 4.552079e-08
 6.098474e-08
 8.492835e-08
 2.300039e-07
 8.585912e-07
 -8.028756e-08
 -1.453873e-06
 -4.414194e-07
 -2.942380e-07
 -2.184459e-07
 -1.519772e-07
 -9.408227e-08
 -5.090780e-08
 -2.165750e-08
 0.000000e+00
 0.000000e+00
 8.489985e-08
 1.443483e-07
 1.321102e-07
 1.730659e-08
 -1.163766e-07
 -1.721729e-07
 -1.722668e-07
 -1.643118e-07
 -1.614095e-07
 -1.625887e-07
 -1.661856e-07
 -1.721764e-07
 -1.817266e-07
 -1.955213e-07
 -2.118025e-07
 -2.261546e-07
 -2.340706e-07
 -2.336562e-07
 -2.256275e-07
 -2.116474e-07
 -1.933349e-07
 -1.723833e-07
 -1.509515e-07
 -1.317002e-07
 -1.173131e-07
 -1.096128e-07
 -1.087457e-07
 -1.132463e-07
 -1.213284e-07
 -1.325345e-07
 -1.482892e-07
 -1.694078e-07
 -1.825886e-07
 -1.397787e-07
 -1.706278e-08
 9.535594e-08
 1.300465e-07
 1.429027e-07
 1.975300e-07
 2.175789e-07
 -6.506869e-08
 -3.935279e-07
 -4.051072e-07
 -3.103462e-07
 -2.305251e-07
 -1.433142e-07
 -6.661885e-08
 -2.184499e-08
 -4.726086e-09
 0.000000e+00
 0.000000e+00
 8.643301e-08
 1.321748e-07
 1.122352e-07
 3.731419e-08
 -4.897161e-08
 -1.081128e-07
 -1.363389e-07
 -1.478186e-07
 -1.529669e-07
 -1.559322e-07
 -1.584913e-07
 -1.621482e-07
 -1.682238e-07
 -1.770725e-07
 -1.874555e-07
 -1.968366e-07
 -2.025963e-07
 -2.032060e-07
 -1.984905e-07
 -1.891632e-07
 -1.763525e-07
 -1.614408e-07
 -1.460574e-07
 -1.319792e-07
 -1.208367e-07
 -1.137101e-07
 -1.108701e-07
 -1.119953e-07
 -1.170345e-07
 -1.276862e-07
 -1.497742e-07
 -1.975981e-07
 -2.974793e-07
 -3.113737e-07
 -1.014435e-08
 2.529722e-07
 2.184377e-07
 1.467834e-07
 1.114751e-07
 5.245462e-08
 -8.364254e-08
 -2.323629e-07
 -3.062270e-07
 -3.155881e-07
 -2.589986e-07
 -1.242792e-07
 -1.155550e-09
 3.637532e-08
 2.350518e-08
 0.000000e+00
 0.000000e+00
 1.309205e-07
 1.923314e-07
 1.541739e-07
 6.762492e-08
 -1.640408e-08
 -7.787388e-08
 -1.157790e-07
 -1.365120e-07
 -1.463980e-07
 -1.496928e-07
 -1.496923e-07
 -1.495349e-07
 -1.516530e-07
 -1.568420e-07
 -1.640978e-07
 -1.713538e-07
 -1.765206e-07
 -1.782266e-07
 -1.760230e-07
 -1.702003e-07
 -1.615157e-07
 -1.510005e-07
 -1.398379e-07
 -1.292271e-07
 -1.201956e-07
 -1.134026e-07
 -1.090584e-07
 -1.071023e-07
 -1.077608e-07
 -1.127247e-07
 -1.280745e-07
 -1.742255e-07
 -3.294633e-07
 -1.382079e-06
 -4.709823e-08
 8.805317e-07
 2.568352e-07
 1.034141e-07
 4.633835e-08
 -6.819847e-09
 -8.407338e-08
 -1.738803e-07
 -2.638977e-07
 -3.789628e-07
 -3.940924e-07
 -8.940999e-08
 1.771653e-07
 1.408879e-07
 5.611592e-08
 0.000000e+00
 0.000000e+00
 2.497863e-07
 3.720318e-07
 2.409688e-07
 8.931708e-08
 -9.338581e-09
 -7.236340e-08
 -1.121916e-07
 -1.356190e-07
 -1.462834e-07
 -1.467703e-07
 -1.409435e-07
 -1.343457e-07
 -1.316829e-07
 -1.343598e-07
 -1.407463e-07
 -1.480968e-07
 -1.540708e-07
 -1.572819e-07
 -1.572490e-07
 -1.541429e-07
 -1.485353e-07
 -1.412124e-07
 -1.330384e-07
 -1.248315e-07
 -1.172335e-07
 -1.105906e-07
 -1.048924e-07
 -9.980339e-08
 -9.477817e-08
 -8.917125e-08
 -8.213607e-08
 -7.159170e-08
 -4.821038e-08
 -6.739100e-08
 1.740222e-05
 -4.494316e-08
 -4.275402e-09
 -1.054110e-08
 -1.501820e-08
 -3.413450e-08
 -7.155165e-08
 -1.238473e-07
 -1.994602e-07
 -3.720345e-07
 -1.432119e-06
 -9.865270e-08
 8.301758e-07
 2.078703e-07
 5.512512e-08
 0.000000e+00
 0.000000e+00
 2.450512e-07
 9.780475e-07
 2.659548e-07
 5.546153e-08
 -3.624961e-08
 -8.918416e-08
 -1.244822e-07
 -1.472882e-07
 -1.566193e-07
 -1.505487e-07
 -1.328225e-07
 -1.145705e-07
 -1.058184e-07
 -1.080030e-07
 -1.165293e-07
 -1.263917e-07
 -1.345391e-07
 -1.396894e-07
 -1.416129e-07
 -1.406211e-07
 -1.372830e-07
 -1.322681e-07
 -1.262422e-07
 -1.197763e-07
 -1.132538e-07
 -1.067773e-07
 -1.000817e-07
 -9.242857e-08
 -8.236128e-08
 -6.692112e-08
 -3.898833e-08
 2.245300e-08
 1.931679e-07
 8.374236e-07
 -6.850092e-08
 -1.379780e-06
 -3.015424e-07
 -1.222411e-07
 -5.997075e-08
 -4.148516e-08
 -4.548479e-08
 -5.868795e-08
 -6.916921e-08
 -6.187788e-08
 -9.051975e-08
 1.737574e-05
 -6.982772e-08
 -2.325845e-08
 -1.776802e-08
 0.000000e+00
 0.000000e+00
 1.741560e-05
 -4.475236e-08
 -3.188098e-08
 -6.788880e-08
 -9.505245e-08
 -1.216025e-07
 -1.483094e-07
 -1.721662e-07
 -1.834331e-07
 -1.676171e-07
 -1.249981e-07
 -8.347273e-08
 -6.794851e-08
 -7.536963e-08
 -9.137333e-08
 -1.067028e-07
 -1.181713e-07
 -1.254074e-07
 -1.289316e-07
 -1.294609e-07
 -1.277067e-07
 -1.243193e-07
 -1.198545e-07
 -1.147306e-07
 -1.091671e-07
 -1.031071e-07
 -9.612037e-08
 -8.725751e-08
 -7.476514e-08
 -5.542143e-08
 -2.297393e-08
 3.473022e-08
 1.331082e-07
 1.885119e-07
 -5.512847e-08
 -3.317945e-07
 -2.846299e-07
 -1.465281e-07
 -6.656994e-08
 -2.695357e-08
 -1.038892e-08
 3.694281e-09
 4.686969e-08
 2.014287e-07
 8.349975e-07
 -7.477263e-08
 -1.383136e-06
 -2.957577e-07
 -9.873494e-08
 0.000000e+00
 0.000000e+00
 -2.919748e-07
 -1.465969e-06
 -3.639429e-07
 -1.959759e-07
 -1.537472e-07
 -1.533980e-07
 -1.737956e-07
 -2.081314e-07
 -2.397780e-07
 -2.179722e-07
 -1.153131e-07
 -1.996893e-08
 -5.556625e-09
 -3.555835e-08
 -6.795582e-08
 -9.128353e-08
 -1.061518e-07
 -1.148582e-07
 -1.192415e-07
 -1.205735e-07
 -1.197485e-07
 -1.174254e-07
 -1.140932e-07
 -1.100790e-07
 -1.055156e-07
 -1.002805e-07
 -9.391039e-08
 -8.549447e-08
 -7.356259e-08
 -5.604742e-08
 -3.068586e-08
 2.498512e-09
 3.076747e-08
 1.108018e-08
 -9.113148e-08
 -1.929663e-07
 -1.913610e-07
 -1.127075e-07
 -3.309329e-08
 1.121762e-08
 2.838295e-08
 4.262156e-08
 7.849918e-08
 1.575265e-07
 1.996999e-07
 -4.811733e-08
 -3.194149e-07
 -2.613225e-07
 -1.090037e-07
 0.000000e+00
 0.000000e+00
 -2.105658e-07
 -4.176784e-07
 -3.524780e-07
 -2.299889e-07
 -1.778349e-07
 -1.664184e-07
 -1.845085e-07
 -2.383364e-07
 -3.500716e-07
 -3.790064e-07
 -9.408263e-08
 1.519209e-07
 9.733725e-08
 3.431428e-10
 -5.502668e-08
 -8.441949e-08
 -1.001798e-07
 -1.085344e-07
 -1.125419e-07
 -1.138062e-07
 -1.132616e-07
 -1.115145e-07
 -1.089825e-07
 -1.059348e-07
 -1.024795e-07
 -9.851453e-08
 -9.365189e-08
 -8.713988e-08
 -7.787061e-08
 -6.472233e-08
 -4.777003e-08
 -3.113210e-08
 -2.711300e-08
 -5.505634e-08
 -1.216293e-07
 -1.897148e-07
 -1.819324e-07
 -7.023760e-08
 4.386273e-08
 7.864156e-08
 6.953803e-08
 6.032348e-08
 6.281277e-08
 6.521513e-08
 2.647809e-08
 -8.141281e-08
 -1.704178e-07
 -1.510489e-07
 -7.325961e-08
 0.000000e+00
 0.000000e+00
 -1.295325e-07
 -2.219382e-07
 -2.309798e-07
 -1.953162e-07
 -1.646878e-07
 -1.526389e-07
 -1.626161e-07
 -2.113350e-07
 -3.743518e-07
 -1.438104e-06
 -1.164290e-07
 7.963699e-07
 1.570934e-07
 -9.300780e-09
 -6.652388e-08
 -9.016672e-08
 -1.011314e-07
 -1.063395e-07
 -1.084850e-07
 -1.087984e-07
 -1.079482e-07
 -1.063653e-07
 -1.043614e-07
 -1.021638e-07
 -9.990588e-08
 -9.758394e-08
 -9.497548e-08
 -9.151780e-08
 -8.621010e-08
 -7.781282e-08
 -6.598454e-08
 -5.393952e-08
 -5.144296e-08
 -7.444337e-08
 -1.408979e-07
 -2.690547e-07
 -3.085746e-07
 -2.436696e-08
 2.288530e-07
 1.864567e-07
 1.043883e-07
 6.351974e-08
 4.123093e-08
 1.151274e-08
 -4.844759e-08
 -1.315785e-07
 -1.655515e-07
 -9.762489e-08
 -1.650860e-08
 0.000000e+00
 0.000000e+00
 -7.747310e-08
 -1.330628e-07
 -1.532327e-07
 -1.470059e-07
 -1.321288e-07
 -1.186686e-07
 -1.087413e-07
 -1.000045e-07
 -8.214302e-08
 -1.097405e-07
 1.734899e-05
 -1.111158e-07
 -8.405835e-08
 -1.006720e-07
 -1.052304e-07
 -1.068311e-07
 -1.072740e-07
 -1.070028e-07
 -1.061795e-07
 -1.049193e-07
 -1.033498e-07
 -1.016239e-07
 -9.991928e-08
 -9.843151e-08
 -9.736109e-08
 -9.688342e-08
 -9.706907e-08
 -9.768100e-08
 -9.773864e-08
 -9.489943e-08
 -8.561145e-08
 -6.840175e-08
 -5.045052e-08
 -5.048343e-08
 -9.815220e-08
 -2.695844e-07
 -1.344294e-06
 -3.003161e-08
 8.816540e-07
 2.482618e-07
 9.350110e-08
 4.847595e-08
 2.686845e-08
 -8.250849e-09
 -8.489505e-08
 -2.305723e-07
 -2.987984e-07
 -5.431729e-08
 1.396831e-07
 0.000000e+00
 0.000000e+00
 -4.811165e-08
 -8.469603e-08
 -1.032726e-07
 -1.054190e-07
 -9.679040e-08
 -8.059113e-08
 -5.287730e-08
 6.405094e-09
 1.730115e-07
 8.111816e-07
 -1.034080e-07
 -1.426858e-06
 -3.640165e-07
 -1.998678e-07
 -1.461647e-07
 -1.245049e-07
 -1.140986e-07
 -1.082138e-07
 -1.043137e-07
 -1.013542e-07
 -9.891205e-08
 -9.686439e-08
 -9.526151e-08
 -9.427883e-08
 -9.420922e-08
 -9.547503e-08
 -9.862121e-08
 -1.041602e-07
 -1.118704e-07
 -1.186381e-07
 -1.147194e-07
 -8.581829e-08
 -3.260896e-08
 1.693925e-08
 3.970857e-08
 4.854322e-08
 3.238217e-09
 1.744548e-05
 -2.472427e-08
 2.736748e-09
 -6.751869e-10
 1.550551e-08
 2.699572e-08
 1.302411e-08
 -5.083704e-08
 -2.384281e-07
 -1.331810e-06
 -4.599875e-08
 8.051471e-07
 0.000000e+00
 0.000000e+00
 -3.113574e-08
 -5.595066e-08
 -7.048791e-08
 -7.409053e-08
 -6.789332e-08
 -5.191388e-08
 -2.205845e-08
 3.298419e-08
 1.285891e-07
 1.808609e-07
 -6.803450e-08
 -3.559506e-07
 -3.294273e-07
 -2.184133e-07
 -1.615737e-07
 -1.326703e-07
 -1.169615e-07
 -1.076505e-07
 -1.015986e-07
 -9.731742e-08
 -9.410666e-08
 -9.167991e-08
 -9.000251e-08
 -8.923484e-08
 -8.974539e-08
 -9.219331e-08
 -9.769650e-08
 -1.080635e-07
 -1.257545e-07
 -1.515990e-07
 -1.713051e-07
 -1.339953e-07
 -1.009740e-08
 1.184090e-07
 1.973845e-07
 3.369711e-07
 9.412582e-07
 -3.223886e-09
 -1.349977e-06
 -2.957471e-07
 -1.122372e-07
 -1.251900e-08
 5.286789e-08
 7.914457e-08
 7.743121e-08
 7.440932e-08
 2.627338e-08
 1.746875e-05
 -4.891349e-09
 0.000000e+00
 0.000000e+00
 -2.091365e-08
 -3.811502e-08
 -4.897655e-08
 -5.236662e-08
 -4.810361e-08
 -3.589596e-08
 -1.475077e-08
 1.514403e-08
 4.198132e-08
 2.369890e-08
 -7.610789e-08
 -1.836234e-07
 -2.103735e-07
 -1.831805e-07
 -1.515136e-07
 -1.288742e-07
 -1.139712e-07
 -1.040747e-07
 -9.723234e-08
 -9.227389e-08
 -8.855661e-08
 -8.577681e-08
 -8.386661e-08
 -8.295865e-08
 -8.341796e-08
 -8.597387e-08
 -9.205464e-08