<VTKFile type="UnstructuredGrid"  version="0.1"   >
<UnstructuredGrid>  
<Piece  NumberOfPoints="     2601"  NumberOfCells="     5000">  
<Points>  
<DataArray  type="Float64"  NumberOfComponents="3"  format="ascii">  
 0.000000 0.000000 0.000000 
 0.020000 0.000000 0.000000 
 0.040000 0.000000 0.000000 
 0.060000 0.000000 0.000000 
 0.080000 0.000000 0.000000 
 0.100000 0.000000 0.000000 
 0.120000 0.000000 0.000000 
 0.140000 0.000000 0.000000 
 0.160000 0.000000 0.000000 
 0.180000 0.000000 0.000000 
 0.200000 0.000000 0.000000 
 0.220000 0.000000 0.000000 
 0.240000 0.000000 0.000000 
 0.260000 0.000000 0.000000 
 0.280000 0.000000 0.000000 
 0.300000 0.000000 0.000000 
 0.320000 0.000000 0.000000 
 0.340000 0.000000 0.000000 
 0.360000 0.000000 0.000000 
 0.380000 0.000000 0.000000 
 0.400000 0.000000 0.000000 
 0.420000 0.000000 0.000000 
 0.440000 0.000000 0.000000 
 0.460000 0.000000 0.000000 
 0.480000 0.000000 0.000000 
 0.500000 0.000000 0.000000 
 0.520000 0.000000 0.000000 
 0.540000 0.000000 0.000000 
 0.560000 0.000000 0.000000 
 0.580000 0.000000 0.000000 
 0.600000 0.000000 0.000000 
 0.620000 0.000000 0.000000 
 0.640000 0.000000 0.000000 
 0.660000 0.000000 0.000000 
 0.680000 0.000000 0.000000 
 0.700000 0.000000 0.000000 
 0.720000 0.000000 0.000000 
 0.740000 0.000000 0.000000 
 0.760000 0.000000 0.000000 
 0.780000 0.000000 0.000000 
 0.800000 0.000000 0.000000 
 0.820000 0.000000 0.000000 
 0.840000 0.000000 0.000000 
 0.860000 0.000000 0.000000 
 0.880000 0.000000 0.000000 
 0.900000 0.000000 0.000000 
 0.920000 0.000000 0.000000 
 0.940000 0.000000 0.000000 
 0.960000 0.000000 0.000000 
 0.980000 0.000000 0.000000 
 1.000000 0.000000 0.000000 
 0.000000 0.020000 0.000000 
 0.020000 0.020000 0.000000 
 0.040000 0.020000 0.000000 
 0.060000 0.020000 0.000000 
 0.080000 0.020000 0.000000 
 0.100000 0.020000 0.000000 
 0.120000 0.020000 0.000000 
 0.140000 0.020000 0.000000 
 0.160000 0.020000 0.000000 
 0.180000 0.020000 0.000000 
 0.200000 0.020000 0.000000 
 0.220000 0.020000 0.000000 
 0.240000 0.020000 0.000000 
 0.260000 0.020000 0.000000 
 0.280000 0.020000 0.000000 
 0.300000 0.020000 0.000000 
 0.320000 0.020000 0.000000 
 0.340000 0.020000 0.000000 
 0.360000 0.020000 0.000000 
 0.380000 0.020000 0.000000 
 0.400000 0.020000 0.000000 
 0.420000 0.020000 0.000000 
 0.440000 0.020000 0.000000 
 0.460000 0.020000 0.000000 
 0.480000 0.020000 0.000000 
 0.500000 0.020000 0.000000 
 0.520000 0.020000 0.000000 
 0.540000 0.020000 0.000000 
 0.560000 0.020000 0.000000 
 0.580000 0.020000 0.000000 
 0.600000 0.020000 0.000000 
 0.620000 0.020000 0.000000 
 0.640000 0.020000 0.000000 
 0.660000 0.020000 0.000000 
 0.680000 0.020000 0.000000 
 0.700000 0.020000 0.000000 
 0.720000 0.020000 0.000000 
 0.740000 0.020000 0.000000 
 0.760000 0.020000 0.000000 
 0.780000 0.020000 0.000000 
 0.800000 0.020000 0.000000 
 0.820000 0.020000 0.000000 
 0.840000 0.020000 0.000000 
 0.860000 0.020000 0.000000 
 0.880000 0.020000 0.000000 
 0.900000 0.020000 0.000000 
 0.920000 0.020000 0.000000 
 0.940000 0.020000 0.000000 
 0.960000 0.020000 0.000000 
 0.980000 0.020000 0.000000 
 1.000000 0.020000 0.000000 
 0.000000 0.040000 0.000000 
 0.020000 0.040000 0.000000 
 0.040000 0.040000 0.000000 
 0.060000 0.040000 0.000000 
 0.080000 0.040000 0.000000 
 0.100000 0.040000 0.000000 
 0.120000 0.040000 0.000000 
 0.140000 0.040000 0.000000 
 0.160000 0.040000 0.000000 
 0.180000 0.040000 0.000000 
 0.200000 0.040000 0.000000 
 0.220000 0.040000 0.000000 
 0.240000 0.040000 0.000000 
 0.260000 0.040000 0.000000 
 0.280000 0.040000 0.000000 
 0.300000 0.040000 0.000000 
 0.320000 0.040000 0.000000 
 0.340000 0.040000 0.000000 
 0.360000 0.040000 0.000000 
 0.380000 0.040000 0.000000 
 0.400000 0.040000 0.000000 
 0.420000 0.040000 0.000000 
 0.440000 0.040000 0.000000 
 0.460000 0.040000 0.000000 
 0.480000 0.040000 0.000000 
 0.500000 0.040000 0.000000 
 0.520000 0.040000 0.000000 
 0.540000 0.040000 0.000000 
 0.560000 0.040000 0.000000 
 0.580000 0.040000 0.000000 
 0.600000 0.040000 0.000000 
 0.620000 0.040000 0.000000 
 0.640000 0.040000 0.000000 
 0.660000 0.040000 0.000000 
 0.680000 0.040000 0.000000 
 0.700000 0.040000 0.000000 
 0.720000 0.040000 0.000000 
 0.740000 0.040000 0.000000 
 0.760000 0.040000 0.000000 
 0.780000 0.040000 0.000000 
 0.800000 0.040000 0.000000 
 0.820000 0.040000 0.000000 
 0.840000 0.040000 0.000000 
 0.860000 0.040000 0.000000 
 0.880000 0.040000 0.000000 
 0.900000 0.040000 0.000000 
 0.920000 0.040000 0.000000 
 0.940000 0.040000 0.000000 
 0.960000 0.040000 0.000000 
 0.980000 0.040000 0.000000 
 1.000000 0.040000 0.000000 
 0.000000 0.060000 0.000000 
 0.020000 0.060000 0.000000 
 0.040000 0.060000 0.000000 
 0.060000 0.060000 0.000000 
 0.080000 0.060000 0.000000 
 0.100000 0.060000 0.000000 
 0.120000 0.060000 0.000000 
 0.140000 0.060000 0.000000 
 0.160000 0.060000 0.000000 
 0.180000 0.060000 0.000000 
 0.200000 0.060000 0.000000 
 0.220000 0.060000 0.000000 
 0.240000 0.060000 0.000000 
 0.260000 0.060000 0.000000 
 0.280000 0.060000 0.000000 
 0.300000 0.060000 0.000000 
 0.320000 0.060000 0.000000 
 0.340000 0.060000 0.000000 
 0.360000 0.060000 0.000000 
 0.380000 0.060000 0.000000 
 0.400000 0.060000 0.000000 
 0.420000 0.060000 0.000000 
 0.440000 0.060000 0.000000 
 0.460000 0.060000 0.000000 
 0.480000 0.060000 0.000000 
 0.500000 0.060000 0.000000 
 0.520000 0.060000 0.000000 
 0.540000 0.060000 0.000000 
 0.560000 0.060000 0.000000 
 0.580000 0.060000 0.000000 
 0.600000 0.060000 0.000000 
 0.620000 0.060000 0.000000 
 0.640000 0.060000 0.000000 
 0.660000 0.060000 0.000000 
 0.680000 0.060000 0.000000 
 0.700000 0.060000 0.000000 
 0.720000 0.060000 0.000000 
 0.740000 0.060000 0.000000 
 0.760000 0.060000 0.000000 
 0.780000 0.060000 0.000000 
 0.800000 0.060000 0.000000 
 0.820000 0.060000 0.000000 
 0.840000 0.060000 0.000000 
 0.860000 0.060000 0.000000 
 0.880000 0.060000 0.000000 
 0.900000 0.060000 0.000000 
 0.920000 0.060000 0.000000 
 0.940000 0.060000 0.000000 
 0.960000 0.060000 0.000000 
 0.980000 0.060000 0.000000 
 1.000000 0.060000 0.000000 
 0.000000 0.080000 0.000000 
 0.020000 0.080000 0.000000 
 0.040000 0.080000 0.000000 
 0.060000 0.080000 0.000000 
 0.080000 0.080000 0.000000 
 0.100000 0.080000 0.000000 
 0.120000 0.080000 0.000000 
 0.140000 0.080000 0.000000 
 0.160000 0.080000 0.000000 
 0.180000 0.080000 0.000000 
 0.200000 0.080000 0.000000 
 0.220000 0.080000 0.000000 
 0.240000 0.080000 0.000000 
 0.260000 0.080000 0.000000 
 0.280000 0.080000 0.000000 
 0.300000 0.080000 0.000000 
 0.320000 0.080000 0.000000 
 0.340000 0.080000 0.000000 
 0.360000 0.080000 0.000000 
 0.380000 0.080000 0.000000 
 0.400000 0.080000 0.000000 
 0.420000 0.080000 0.000000 
 0.440000 0.080000 0.000000 
 0.460000 0.080000 0.000000 
 0.480000 0.080000 0.000000 
 0.500000 0.080000 0.000000 
 0.520000 0.080000 0.000000 
 0.540000 0.080000 0.000000 
 0.560000 0.080000 0.000000 
 0.580000 0.080000 0.000000 
 0.600000 0.080000 0.000000 
 0.620000 0.080000 0.000000 
 0.640000 0.080000 0.000000 
 0.660000 0.080000 0.000000 
 0.680000 0.080000 0.000000 
 0.700000 0.080000 0.000000 
 0.720000 0.080000 0.000000 
 0.740000 0.080000 0.000000 
 0.760000 0.080000 0.000000 
 0.780000 0.080000 0.000000 
 0.800000 0.080000 0.000000 
 0.820000 0.080000 0.000000 
 0.840000 0.080000 0.000000 
 0.860000 0.080000 0.000000 
 0.880000 0.080000 0.000000 
 0.900000 0.080000 0.000000 
 0.920000 0.080000 0.000000 
 0.940000 0.080000 0.000000 
 0.960000 0.080000 0.000000 
 0.980000 0.080000 0.000000 
 1.000000 0.080000 0.000000 
 0.000000 0.100000 0.000000 
 0.020000 0.100000 0.000000 
 0.040000 0.100000 0.000000 
 0.060000 0.100000 0.000000 
 0.080000 0.100000 0.000000 
 0.100000 0.100000 0.000000 
 0.120000 0.100000 0.000000 
 0.140000 0.100000 0.000000 
 0.160000 0.100000 0.000000 
 0.180000 0.100000 0.000000 
 0.200000 0.100000 0.000000 
 0.220000 0.100000 0.000000 
 0.240000 0.100000 0.000000 
 0.260000 0.100000 0.000000 
 0.280000 0.100000 0.000000 
 0.300000 0.100000 0.000000 
 0.320000 0.100000 0.000000 
 0.340000 0.100000 0.000000 
 0.360000 0.100000 0.000000 
 0.380000 0.100000 0.000000 
 0.400000 0.100000 0.000000 
 0.420000 0.100000 0.000000 
 0.440000 0.100000 0.000000 
 0.460000 0.100000 0.000000 
 0.480000 0.100000 0.000000 
 0.500000 0.100000 0.000000 
 0.520000 0.100000 0.000000 
 0.540000 0.100000 0.000000 
 0.560000 0.100000 0.000000 
 0.580000 0.100000 0.000000 
 0.600000 0.100000 0.000000 
 0.620000 0.100000 0.000000 
 0.640000 0.100000 0.000000 
 0.660000 0.100000 0.000000 
 0.680000 0.100000 0.000000 
 0.700000 0.100000 0.000000 
 0.720000 0.100000 0.000000 
 0.740000 0.100000 0.000000 
 0.760000 0.100000 0.000000 
 0.780000 0.100000 0.000000 
 0.800000 0.100000 0.000000 
 0.820000 0.100000 0.000000 
 0.840000 0.100000 0.000000 
 0.860000 0.100000 0.000000 
 0.880000 0.100000 0.000000 
 0.900000 0.100000 0.000000 
 0.920000 0.100000 0.000000 
 0.940000 0.100000 0.000000 
 0.960000 0.100000 0.000000 
 0.980000 0.100000 0.000000 
 1.000000 0.100000 0.000000 
 0.000000 0.120000 0.000000 
 0.020000 0.120000 0.000000 
 0.040000 0.120000 0.000000 
 0.060000 0.120000 0.000000 
 0.080000 0.120000 0.000000 
 0.100000 0.120000 0.000000 
 0.120000 0.120000 0.000000 
 0.140000 0.120000 0.000000 
 0.160000 0.120000 0.000000 
 0.180000 0.120000 0.000000 
 0.200000 0.120000 0.000000 
 0.220000 0.120000 0.000000 
 0.240000 0.120000 0.000000 
 0.260000 0.120000 0.000000 
 0.280000 0.120000 0.000000 
 0.300000 0.120000 0.000000 
 0.320000 0.120000 0.000000 
 0.340000 0.120000 0.000000 
 0.360000 0.120000 0.000000 
 0.380000 0.120000 0.000000 
 0.400000 0.120000 0.000000 
 0.420000 0.120000 0.000000 
 0.440000 0.120000 0.000000 
 0.460000 0.120000 0.000000 
 0.480000 0.120000 0.000000 
 0.500000 0.120000 0.000000 
 0.520000 0.120000 0.000000 
 0.540000 0.120000 0.000000 
 0.560000 0.120000 0.000000 
 0.580000 0.120000 0.000000 
 0.600000 0.120000 0.000000 
[...]
<PointData  Scalars="U"> 
<DataArray  type="Float64"  Name="U"  format="ascii"> 
 0.000000e+00
 0.000000e+00
 0.000000e+00
 0.000000e+00
 0.000000e+00
 0.000000e+00
 0.000000e+00
 0.000000e+00
 0.000000e+00
 0.000000e+00
 0.000000e+00
 0.000000e+00
 0.000000e+00
 0.000000e+00
 0.000000e+00
 0.000000e+00
 0.000000e+00
 0.000000e+00
 0.000000e+00
 0.000000e+00
 0.000000e+00
 0.000000e+00
 0.000000e+00
 0.000000e+00
 0.000000e+00
 0.000000e+00
 0.000000e+00
 0.000000e+00
 0.000000e+00
 0.000000e+00
 0.000000e+00
 0.000000e+00
 0.000000e+00
 0.000000e+00
 0.000000e+00
 0.000000e+00
 0.000000e+00
 0.000000e+00
 0.000000e+00
 0.000000e+00
 0.000000e+00
 0.000000e+00
 0.000000e+00
 0.000000e+00
 0.000000e+00
 0.000000e+00
 0.000000e+00
 0.000000e+00
 0.000000e+00
 0.000000e+00
 0.000000e+00
 0.000000e+00
 -5.806951e-10
 -2.497055e-09
 -8.332202e-09
 -2.455765e-08
 -6.784709e-08
 -1.726350e-07
 -2.137931e-07
 3.788483e-08
 2.539980e-07
 1.952356e-07
 1.174600e-07
 9.430327e-08
 1.059204e-07
 1.351483e-07
 1.194889e-07
 -9.754361e-07
 1.740872e-05
 5.129010e-07
 -6.478040e-08
 -1.244487e-07
 -9.961928e-08
 -7.077094e-08
 -4.846322e-08
 -3.254722e-08
 -2.047843e-08
 -7.888554e-09
 6.645316e-09
 3.581078e-09
 -1.171968e-07
 -1.205051e-06
 -2.243187e-08
 6.341427e-07
 -1.146206e-06
 -1.345627e-07
 5.278169e-07
 -1.534015e-07
 4.226882e-08
 2.983416e-07
 2.273885e-07
 1.049232e-07
 3.604999e-08
 3.293848e-09
 -1.136841e-08
 -1.726554e-08
 -1.856955e-08
 -1.713886e-08
 -1.394778e-08
 -9.637250e-09
 -4.529788e-09
 0.000000e+00
 0.000000e+00
 -6.236310e-13
 -1.623187e-09
 -7.796144e-09
 -2.561746e-08
 -7.616983e-08
 -2.378745e-07
 -1.298472e-06
 2.823506e-08
 9.490753e-07
 3.229414e-07
 1.780384e-07
 1.559504e-07
 1.907039e-07
 2.818349e-07
 4.832849e-07
 1.035955e-06
 1.741801e-05
 -1.516786e-06
 -4.685960e-07
 -2.915801e-07
 -1.964593e-07
 -1.340897e-07
 -9.027059e-08
 -6.081963e-08
 -4.162875e-08
 -2.049093e-08
 2.115386e-08
 8.601173e-08
 1.486267e-07
 1.147588e-07
 1.751650e-05
 -1.241840e-08
 -1.094169e-07
 1.719431e-05
 -5.521850e-07
 -1.610709e-06
 -2.001821e-08
 1.123064e-06
 4.159633e-07
 1.477947e-07
 3.756699e-08
 -9.930877e-09
 -3.069285e-08
 -3.877913e-08
 -3.974960e-08
 -3.599584e-08
 -2.897499e-08
 -1.995534e-08
 -1.003839e-08
 0.000000e+00
 0.000000e+00
 2.015128e-09
 3.239597e-09
 2.650934e-09
 -4.201122e-10
 -3.045855e-09
 1.175558e-08
 2.614934e-09
 1.750349e-05
 8.729062e-08
 1.416989e-07
 1.438860e-07
 1.685790e-07
 2.252429e-07
 3.402534e-07
 5.884835e-07
 1.229349e-06
 -1.840814e-08
 -1.711273e-06
 -6.654166e-07
 -3.948444e-07
 -2.643925e-07
 -1.803951e-07
 -1.177359e-07
 -7.726456e-08
 -6.287049e-08
 -5.623678e-08
 5.285883e-09
 1.738134e-07
 4.368001e-07
 1.085362e-06
 1.495997e-07
 -1.102542e-06
 5.159448e-07
 -2.918953e-07
 -1.659127e-06
 -1.606336e-06
 1.736930e-05
 8.653531e-07
 2.504382e-07
 5.590494e-08
 -1.541597e-08
 -4.677350e-08
 -6.146111e-08
 -6.695374e-08
 -6.553654e-08
 -5.810964e-08
 -4.597063e-08
 -3.113563e-08
 -1.551359e-08
 0.000000e+00
 0.000000e+00
 4.764401e-09
 9.912259e-09
 1.600377e-08
 2.623864e-08
 5.865492e-08
 2.010539e-07
 8.667710e-07
 6.002751e-08
 -1.160190e-06
 -6.836780e-08
 9.072025e-08
 1.510508e-07
 2.075967e-07
 2.874903e-07
 3.912763e-07
 3.877341e-07
 -1.396998e-08
 -4.635190e-07
 -5.043697e-07
 -3.867827e-07
 -2.947760e-07
 -2.094981e-07
 -1.235309e-07
 -6.446656e-08
 -6.629042e-08
 -1.459506e-07
 -1.418656e-07
 1.986878e-07
 5.412105e-07
 5.404944e-07
 2.009575e-07
 -1.186067e-07
 -1.302831e-07
 -2.078405e-07
 -8.583367e-08
 7.533646e-07
 1.745335e-05
 -1.315881e-06
 -2.499007e-07
 -1.288302e-07
 -1.014774e-07
 -9.823719e-08
 -1.006862e-07
 -1.018496e-07
 -9.744044e-08
 -8.509246e-08
 -6.564598e-08
 -4.290395e-08
 -2.067913e-08
 0.000000e+00
 0.000000e+00
 7.112519e-09
 1.588879e-08
 2.688038e-08
 3.863817e-08
 4.678035e-08
 3.901653e-08
 6.993713e-08
 1.132872e-07
 8.059565e-08
 6.621018e-08
 1.004463e-07
 1.298554e-07
 1.644353e-07
 2.003685e-07
 2.136641e-07
 1.460673e-07
 -3.995080e-08
 -2.403016e-07
 -3.336164e-07
 -3.436359e-07
 -3.217251e-07
 -2.470518e-07
 -1.030922e-07
 1.326403e-08
 9.654941e-09
 -1.510402e-07
 -1.209351e-06
 1.347967e-07
 1.075868e-06
 4.228350e-07
 1.461600e-07
 -9.042766e-08
 -3.613245e-07
 -4.334902e-07
 2.803731e-07
 1.447967e-06
 2.401518e-07
 -1.494333e-06
 -4.753956e-07
 -2.462634e-07
 -1.692853e-07
 -1.453406e-07
 -1.414705e-07
 -1.425833e-07
 -1.378697e-07
 -1.197688e-07
 -8.861305e-08
 -5.358522e-08
 -2.379788e-08
 0.000000e+00
 0.000000e+00
 7.605021e-09
 1.930528e-08
 3.656085e-08
 5.378523e-08
 4.680547e-08
 -7.793107e-08
 -1.151262e-06
 7.767583e-08
 8.908131e-07
 2.354278e-07
 1.104521e-07
 1.018644e-07
 1.171521e-07
 1.284087e-07
 1.153512e-07
 5.739577e-08
 -4.668383e-08
 -1.610746e-07
 -2.483648e-07
 -3.142639e-07
 -3.996541e-07
 -3.834859e-07
 -5.187039e-08
 2.323626e-07
 2.091370e-07
 1.508717e-07
 9.064756e-08
 1.754589e-05
 9.490890e-08
 1.239591e-07
 7.369552e-08
 -5.088795e-08
 -4.142866e-07
 -2.575205e-06
 8.325506e-08
 1.922882e-06
 3.881552e-07
 -2.378962e-07
 -3.221800e-07
 -2.412627e-07
 -1.926151e-07
 -1.745907e-07
 -1.776991e-07
 -1.894944e-07
 -1.931045e-07
 -1.693685e-07
 -1.154100e-07
 -5.725619e-08
 -1.968503e-08
 0.000000e+00
 0.000000e+00
 3.608455e-09
 1.610663e-08
 4.385902e-08
 8.526375e-08
 1.291118e-07
 1.662055e-07
 1.258213e-07
 1.754090e-05
 3.554401e-08
 4.555812e-08
 3.983581e-08
 5.712005e-08
 7.425244e-08
 7.985554e-08
 6.491369e-08
 2.320258e-08
 -4.246036e-08
 -1.182852e-07
 -1.909221e-07
 -2.655657e-07
 -4.101334e-07
 -1.418395e-06
 -3.354906e-08
 9.324997e-07
 3.621179e-07
 3.679880e-07
 9.547495e-07
 2.591367e-08
 -1.288608e-06
 -1.804564e-07
 6.849671e-08
 1.710479e-07
 1.687923e-07
 8.306055e-09
 3.476625e-05
 -2.682111e-07
 -1.004615e-07
 -5.435928e-08
 -1.580166e-07
 -1.983605e-07
 -1.848799e-07
 -1.822624e-07
 -2.045096e-07
 -2.435342e-07
 -2.783542e-07
 -2.558565e-07
 -1.459735e-07
 -3.414490e-08
 4.561448e-09
 0.000000e+00
 0.000000e+00
 -9.554066e-09
 -3.766518e-09
 3.549584e-08
 1.141481e-07
 2.227960e-07
 4.079509e-07
 1.032626e-06
 8.818614e-08
 -1.263088e-06
 -2.138094e-07
 -4.834108e-08
 1.407677e-08
 4.302015e-08
 5.210737e-08
 4.285841e-08
 1.529120e-08
 -2.803544e-08
 -8.161216e-08
 -1.383423e-07
 -1.792603e-07
 -1.466333e-07
 -7.133228e-08
 1.749093e-05
 7.215676e-08
 1.361130e-07
 2.040152e-07
 2.368458e-07
 -2.469772e-08
 -3.201154e-07
 -2.316451e-07
 1.869052e-07
 5.237393e-07
 7.340827e-07
 1.814934e-06
 -2.693407e-07
 -4.053672e-06
 -7.062827e-07
 4.222474e-07
 -1.503708e-07
 -2.023381e-07
 -1.560556e-07
 -1.622326e-07
 -2.140258e-07
 -2.937888e-07
 -4.212662e-07
 -4.593871e-07
 -1.750156e-07
 8.824918e-08
 6.888893e-08
 0.000000e+00
 0.000000e+00
 -3.683215e-08
 -5.922710e-08
 -1.725089e-08
 1.198145e-07
 2.737623e-07
 3.847447e-07
 4.048325e-07
 1.201798e-07
 -1.916145e-07
 -1.749527e-07
 -6.332624e-08
 -1.654798e-09
 3.019612e-08
 4.255128e-08
 3.964369e-08
 2.373495e-08
 -3.314970e-09
 -4.097597e-08
 -9.299023e-08
 -1.628801e-07
 -3.747466e-08
 8.736436e-07
 1.896702e-07
 -1.196964e-06
 -1.920782e-07
 5.568307e-10
 -1.050019e-08
 -1.518093e-07
 -1.462681e-07
 -9.977479e-07
 3.124699e-07
 1.219684e-06
 6.781469e-07
 5.401677e-07
 -3.404674e-08
 -6.409324e-07
 1.683389e-05
 -5.701832e-07
 -5.390165e-07
 -2.760169e-07
 -4.163449e-08
 -1.001323e-07
 -2.037242e-07
 -2.975665e-07
 -4.836170e-07
 -1.567779e-06
 -2.667952e-07
 6.597618e-07
 9.522977e-08
 0.000000e+00
 0.000000e+00
 -6.971605e-08
 -1.788876e-07
 -1.938191e-07
 1.144316e-07
 3.914527e-07
 3.634827e-07
 2.479046e-07
 9.520814e-08
 -3.362995e-08
 -6.257910e-08
 -2.867783e-08
 1.029254e-08
 3.594603e-08
 4.799515e-08
 4.943162e-08
 4.317499e-08
 3.126483e-08
 1.289306e-08
 -2.430925e-08
 -1.457945e-07
 -1.126239e-06
 2.286609e-07
 8.500518e-07
 -1.733867e-07
 -3.351572e-07
 -2.920915e-08
 8.442418e-08
 -1.040182e-06
 1.825864e-07
 1.019509e-06
 1.784607e-05
 2.514777e-07
 2.299541e-07
 7.723287e-08
 -3.640863e-08
 6.066265e-07
 -2.178222e-07
 -1.756448e-06
 -1.838562e-06
 -4.032600e-07
 5.363127e-07
 -8.129039e-08
 -2.133501e-07
 -2.368737e-07
 -2.306736e-07
 -2.798159e-07
 1.709650e-05
 -4.055054e-07
 -1.731879e-07
 0.000000e+00
 0.000000e+00
 -6.225289e-08
 -2.232035e-07
 -1.277553e-06
 5.660735e-08
 9.801173e-07
 3.407129e-07
 1.516825e-07
 5.163122e-08
 -5.080284e-09
 -1.319422e-08
 1.025781e-08
 3.766499e-08
 5.560950e-08
 6.398591e-08
 6.679438e-08
 6.792738e-08
 7.094156e-08
 7.983176e-08
 9.997937e-08
 1.414886e-07
 1.356852e-07
 1.756534e-05
 -3.250054e-08
 -2.574211e-07
 -1.341530e-06
 2.883492e-08
 1.011957e-06
 4.159718e-07
 1.788314e-05
 1.020523e-06
 1.350985e-07
 -1.195253e-06
 -1.646512e-07
 -1.676752e-07
 -1.198943e-06
 7.012293e-08
 6.651202e-07
 -2.788868e-07
 -4.671406e-07
 1.701731e-05
 -4.402597e-07
 -3.824631e-07
 -3.016583e-07
 -1.926535e-07
 -1.150027e-08
 6.584210e-07
 -3.269643e-07
 -2.703988e-06
 -4.612739e-07
 0.000000e+00
 0.000000e+00
 1.583063e-08
 4.218551e-08
 2.299966e-08
 1.748754e-05
 2.670139e-08
 4.166079e-08
 4.266559e-10
 -2.940279e-08
 -3.170722e-08
 2.768758e-09
 4.866183e-08
 7.685500e-08
 8.531035e-08
 8.541823e-08
 8.576111e-08
 9.087518e-08
 1.049456e-07
 1.360097e-07
 2.054392e-07
 3.866779e-07
 1.035356e-06
 1.137228e-07
 -1.234722e-06
 -1.786515e-07
 -2.431915e-08
 1.756956e-05
 3.419700e-07
 1.087506e-06
 2.741078e-07
 -9.767933e-07
 -1.361227e-07
 -2.330953e-07
 -1.336236e-07
 1.108651e-08
 2.100748e-08
 1.744467e-05
 -1.008829e-07
 -4.923736e-08
 5.103537e-07
 -4.414020e-07
 -1.853614e-06
 -8.160992e-07
 -3.947135e-07
 -1.661810e-07
 -1.494797e-07
 1.104081e-07
 1.502252e-07
 -1.023575e-07
 1.736444e-05
 0.000000e+00
 0.000000e+00
 8.740847e-08
 2.704518e-07
 9.184598e-07
 6.939370e-09
 -1.323205e-06
 -2.813510e-07
 -1.546719e-07
 -1.395346e-07
 -1.032505e-07
 6.812218e-09
 1.111577e-07
 1.377966e-07
 1.223401e-07
 1.058681e-07
 9.991874e-08
 1.054148e-07
 1.236536e-07
 1.598175e-07
 2.254842e-07
 3.350405e-07
 4.031107e-07
 1.751417e-07
 -6.295215e-08
 1.306870e-07
 9.070554e-07
 1.191125e-07
 -1.048664e-06
 1.273776e-07
 9.930384e-08
 -1.210054e-07
 -1.367526e-07
 -8.054615e-08
 1.991563e-08
 2.379812e-07
 9.013157e-07
 -1.946659e-08
 -1.357195e-06
 -2.695279e-07
 -1.030893e-07
 -3.516794e-07
 -7.737064e-07
 -1.802916e-06
 -4.048661e-07
 4.056491e-07
 -1.280806e-06
 -1.353588e-07
 8.988690e-07
 1.198941e-06
 4.704190e-07
 0.000000e+00
 0.000000e+00
 8.896177e-08
 2.050071e-07
 2.690006e-07
 2.356402e-08
 -2.720162e-07
 -2.713031e-07
 -2.187193e-07
 -2.776803e-07
 -2.806697e-07
 1.970230e-08
 2.784464e-07
 2.369595e-07
 1.542635e-07
 1.146152e-07
 1.028583e-07
 1.078569e-07
 1.255124e-07
 1.555687e-07
 1.975881e-07
 2.398862e-07
 2.417910e-07
 1.726082e-07
 1.211178e-07
 1.977147e-07
 2.989986e-07
 1.212344e-07
 -9.780912e-08
 -4.752506e-08
 1.369100e-10
 -3.291181e-08
 -3.628067e-08
 3.568839e-09
 8.055743e-08
 1.992767e-07
 2.653053e-07
 1.863725e-08
 -2.711434e-07
 -2.472269e-07
 -1.685571e-07
 -2.062773e-07
 -2.572045e-07
 -2.820253e-07
 1.722066e-05
 -2.144158e-07
 -2.984114e-07
 1.703113e-05
 -1.114595e-06
 5.413482e-07
 1.178968e-06
 0.000000e+00
 0.000000e+00
 5.842167e-08
 1.054347e-07
 1.004563e-07
 7.237122e-09
 -1.024071e-07
 -1.464091e-07
 -1.717945e-07
 -3.052922e-07
 -1.347026e-06
 -9.029192e-09
 9.175926e-07
 2.916999e-07
 1.392749e-07
 9.714635e-08
 9.022472e-08
 9.827568e-08
 1.150958e-07
 1.380407e-07
 1.633060e-07
 1.818834e-07
 1.806112e-07
 1.588893e-07
 1.436344e-07
 1.536175e-07
 1.488719e-07
 7.704977e-08
 -5.316243e-09
 -2.530373e-08
 -1.343128e-08
 -7.304039e-11
 2.153245e-08
 5.426339e-08
 9.470528e-08
 1.295843e-07
 1.158840e-07
 1.755221e-08
 -8.958307e-08
 -1.166200e-07
 -9.127633e-08
 -4.183500e-08
 1.196304e-07
 7.885221e-07
 -4.449030e-08
 -1.194795e-06
 4.094229e-07
 -1.325061e-06
 -1.244438e-06
 1.822858e-05
 2.345247e-07
 0.000000e+00
 0.000000e+00
 3.303076e-08
 5.371744e-08
 4.729070e-08
 1.098462e-08
 -2.992398e-08
 -4.693875e-08
 -3.774963e-08
 -7.286759e-09
 -2.022176e-08
 1.745226e-05
 5.063362e-09
 4.487097e-08
 4.143371e-08
 5.087745e-08
 6.440258e-08
 8.041312e-08
 9.837804e-08
 1.172500e-07
 1.344537e-07
 1.455506e-07
 1.464193e-07
 1.382466e-07
 1.280563e-07
 1.173942e-07
 9.371753e-08
 4.756078e-08
 -3.314693e-09
 -3.008387e-08
 -1.966177e-08
 2.150161e-08
 6.758085e-08
 9.652821e-08
 1.080711e-07
 1.048269e-07
 7.898121e-08
 2.924771e-08
 -1.884260e-08
 -3.610466e-08
 -1.709235e-08
 4.049974e-08
 1.558480e-07
 2.590876e-07
 1.089929e-07
 -1.265216e-08
 1.880578e-07
 2.385641e-07
 1.815167e-05
 -1.288438e-07
 -1.254722e-06
 0.000000e+00
 0.000000e+00
 1.896363e-08
 3.076948e-08
 3.040477e-08
 2.012033e-08
 1.234169e-08
 2.465030e-08
 8.081461e-08
 2.528799e-07
 9.004719e-07
 -3.352562e-09
 -1.315601e-06
 -2.412242e-07
 -6.507194e-08
 1.246696e-09
 3.620397e-08
 6.050580e-08
 8.048942e-08
 9.774542e-08
 1.116367e-07
 1.204314e-07
 1.227075e-07
 1.187182e-07
 1.096467e-07
 9.421429e-08
 6.730832e-08
 2.492817e-08
 -2.917144e-08
 -7.492496e-08
 -6.093787e-08
 3.887200e-08
 1.359968e-07
 1.563184e-07
 1.333948e-07
 1.034346e-07
 7.226876e-08
 4.014335e-08
 1.504770e-08
 7.641597e-09
 2.337183e-08
 6.300394e-08
 1.185708e-07
 1.561140e-07
 1.501326e-07
 1.883734e-07
 4.027099e-07
 1.107126e-06
 2.164335e-07
 -1.304198e-06
 -4.020516e-07
 0.000000e+00
 0.000000e+00
 1.227807e-08
 2.124196e-08
 2.547886e-08
 2.751389e-08
 3.458105e-08
 5.756329e-08
 1.109753e-07
 2.099310e-07
 2.688718e-07
 2.848691e-08
 -2.499188e-07
 -2.132424e-07
 -9.155148e-08
 -2.356393e-08
 1.686696e-08
 4.426462e-08
 6.498397e-08
 8.140777e-08
 9.395728e-08
 1.021740e-07
 1.055233e-07
 1.038101e-07
 9.672142e-08
 8.264231e-08
 5.782424e-08
 1.583215e-08
 -5.578298e-08
 -1.803600e-07
 -2.175270e-07
 6.315163e-08
 3.081992e-07
 2.548728e-07
 1.593466e-07
 1.029858e-07
 6.838872e-08
 4.452315e-08
 2.999049e-08
 2.755652e-08
 3.929084e-08
 6.410878e-08
 9.582773e-08
 1.245459e-07
 1.522634e-07
 2.086956e-07
 3.226094e-07
 3.949257e-07
 1.363176e-07
 -2.062875e-07
 -2.008891e-07
 0.000000e+00
 0.000000e+00
 9.208613e-09
 1.713517e-08
 2.361594e-08
 3.044596e-08
 4.141063e-08
 6.108649e-08
 9.152646e-08
 1.215470e-07
 1.087105e-07
 1.596110e-08
 -8.342300e-08
 -1.013107e-07
 -6.473082e-08
 -2.330532e-08
 9.292720e-09
 3.410253e-08
 5.346916e-08
 6.880179e-08
 8.060632e-08
 8.886789e-08
 9.340908e-08
 9.404596e-08
 9.040350e-08
 8.143930e-08
 6.469063e-08
 3.400945e-08
 -3.009996e-08
 -2.044751e-07
 -1.276151e-06
 4.051169e-08
 9.505679e-07
 3.099252e-07
 1.423386e-07
 8.288564e-08
 5.549122e-08
 4.023515e-08
 3.262447e-08
 3.278230e-08
 4.126546e-08
 5.717867e-08
 7.776287e-08
 1.003042e-07
 1.264152e-07
 1.613197e-07
 1.963898e-07
 1.844852e-07
 8.082911e-08
 -3.799814e-08
 -6.055744e-08
 0.000000e+00
 0.000000e+00
 7.613323e-09
 1.482404e-08
 2.177083e-08
 2.941557e-08
 3.926430e-08
 5.220861e-08
 6.607328e-08
 7.209806e-08
 5.595594e-08
 1.435079e-08
 -2.818772e-08
 -4.423076e-08
 -3.404783e-08
 -1.271812e-08
 9.506643e-09
 2.918856e-08
 4.583278e-08
 5.963802e-08
 7.077676e-08
 7.929173e-08
 8.517607e-08
 8.845285e-08
 8.919623e-08
 8.755302e-08
 8.388630e-08
 7.914802e-08
 7.597805e-08
 8.446292e-08
 4.975618e-08
 1.750333e-05
 3.956279e-08
 6.387961e-08
 4.475940e-08
 3.736587e-08
 3.249231e-08
 2.894235e-08
 2.750679e-08
 2.940852e-08
 3.543804e-08
 4.547589e-08
 5.856475e-08
 7.362537e-08
 9.003100e-08
 1.057638e-07
 1.124325e-07
 9.502420e-08
 4.966988e-08
 3.021392e-09
 -1.308341e-08
 0.000000e+00
 0.000000e+00
 6.517733e-09
 1.292973e-08
 1.934241e-08
 2.611390e-08
 3.356251e-08
 4.125030e-08
 4.697517e-08
 4.634866e-08
 3.504939e-08
 1.442704e-08
 -5.946634e-09
 -1.583347e-08
 -1.299600e-08
 -1.804315e-09
 1.267495e-08
 2.738753e-08
 4.101646e-08
 5.311498e-08
 6.356320e-08
 7.235344e-08
 7.955946e-08
 8.540155e-08
 9.040577e-08
 9.577716e-08
 1.043646e-07
 1.234751e-07
 1.746096e-07
 3.340692e-07
 9.662533e-07
 4.678848e-08
 -1.280634e-06
 -2.211911e-07
 -6.023821e-08
 -9.815004e-09
 8.436394e-09
 1.559701e-08
 1.896992e-08
 2.174021e-08
 2.544114e-08
 3.069562e-08
 3.753994e-08
 4.550029e-08
 5.318828e-08
 5.752519e-08
 5.404917e-08
 4.041159e-08
 2.121903e-08
 6.124087e-09
 8.748795e-11
 0.000000e+00
 0.000000e+00
 5.568063e-09
 1.108615e-08
 1.656109e-08
 2.202017e-08
 2.731916e-08
 3.181526e-08
 3.410309e-08
 3.228019e-08
 2.522959e-08
 1.441374e-08
 4.073935e-09
 -1.385586e-09
 -2.718911e-10
 6.244483e-09
 1.590554e-08
 2.680249e-08
 3.777571e-08
 4.825617e-08
 5.801891e-08
 6.702168e-08
 7.535276e-08
 8.328773e-08
 9.148271e-08
 1.013913e-07
 1.161193e-07
 1.421685e-07
 1.923547e-07
 2.829051e-07
 3.303709e-07
 7.710024e-08
 -2.147660e-07
 -1.919034e-07
 -8.445948e-08
 -3.128154e-08
 -6.222349e-09
 5.493363e-09
 1.079530e-08
 1.299699e-08
 1.379775e-08
 1.425495e-08
 1.526424e-08
 1.734288e-08
 1.935996e-08
 1.736775e-08
 7.204426e-09
 -7.467065e-09
 -1.237630e-08
 -1.515062e-09
 7.020185e-09
 0.000000e+00
 0.000000e+00
 4.680549e-09
 9.293801e-09
 1.377157e-08
 1.800312e-08
 2.173780e-08
 2.447289e-08
 2.544784e-08
 2.391620e-08
 1.974122e-08
 1.396180e-08
 8.661414e-09
 5.951582e-09
 6.888893e-09
 1.124123e-08
 1.803957e-08
 2.624042e-08
 3.508206e-08
 4.414248e-08
 5.325343e-08
 6.238929e-08
 7.159990e-08
 8.103581e-08
 9.109809e-08
 1.027081e-07
 1.176083e-07
 1.382942e-07
 1.658143e-07
 1.892652e-07
 1.671855e-07
 6.351803e-08
 -4.777837e-08
 -7.823890e-08
 -5.479467e-08
 -2.707342e-08
 -8.753231e-09
 1.264493e-09
 5.476358e-09
 5.557738e-09
 2.488446e-09
 -2.764719e-09
 -8.342035e-09
 -1.132924e-08
 -1.070958e-08
 -1.325434e-08
 -3.251387e-08
 -6.633790e-08
 -6.770290e-08
 -5.859789e-09
 3.646242e-08
 0.000000e+00
 0.000000e+00
 3.861431e-09
 7.631646e-09
 1.120578e-08
 1.443833e-08
 1.710491e-08
 1.888195e-08
 1.939936e-08
 1.841315e-08
 1.606227e-08
 1.303797e-08
 1.045277e-08
 9.401792e-09
 1.051078e-08
 1.379038e-08
 1.882683e-08
 2.509787e-08
 3.221238e-08
 4.000075e-08
 4.847300e-08
 5.769532e-08
 6.765986e-08
 7.824241e-08
 8.930836e-08
 1.009006e-07
 1.132581e-07
 1.261879e-07
 1.370356e-07
 1.372257e-07
 1.130198e-07
 6.178415e-08
 8.569696e-09
 -1.887971e-08
 -2.069755e-08
 -1.195133e-08
 -2.965978e-09
 2.663921e-09
 4.161245e-09
 1.257779e-09
 -6.477828e-09
 -1.919257e-08
 -3.471373e-08
 -4.507220e-08
 -3.937158e-08
 -2.544922e-08
 -4.705996e-08
 -1.569377e-07
 -2.160400e-07
 1.431788e-08
 1.779510e-07
 0.000000e+00
 0.000000e+00
 3.131695e-09
 6.159255e-09
 8.968054e-09
 1.142094e-08
 1.335012e-08
 1.456852e-08
 1.492040e-08
 1.437625e-08
 1.313728e-08
 1.167265e-08
 1.062147e-08
 1.057888e-08
 1.188802e-08
 1.456749e-08
 1.840591e-08
 2.315255e-08
 2.870116e-08
 3.518482e-08
 4.292757e-08
 5.223503e-08
 6.309688e-08
 7.499897e-08
 8.704141e-08
 9.829428e-08
 1.079887e-07
 1.151239e-07
 1.174987e-07
 1.111229e-07
 9.224084e-08
 6.274535e-08
 3.262351e-08
 1.237109e-08
 4.338071e-09
 4.140696e-09
 6.568177e-09
 8.238541e-09
 7.193916e-09
 1.796223e-09
 -1.015265e-08
 -3.174984e-08
 -6.502076e-08
 -9.792045e-08
 -8.403164e-08
 -3.876999e-09
 3.252218e-08
 -1.282156e-07
 -1.240445e-06
 1.601744e-08
 8.364354e-07
 0.000000e+00
 0.000000e+00
 2.504423e-09
 4.901819e-09
 7.080627e-09
 8.922892e-09
 1.030990e-08
 1.114214e-08
 1.137780e-08
 1.108307e-08
 1.047005e-08
 9.886443e-09
 9.735262e-09
 1.034494e-08
 1.185383e-08
 1.417943e-08
 1.710342e-08
 2.044928e-08
 2.429157e-08
 2.910992e-08
 3.576191e-08
 4.512645e-08
 5.742085e-08
 7.161460e-08
 8.560905e-08
 9.722787e-08
 1.050759e-07
 1.084486e-07
 1.066133e-07
 9.852836e-08
 8.381543e-08
 6.446456e-08
 4.504989e-08
 3.015703e-08
 2.154414e-08
 1.800194e-08
 1.710590e-08
 1.657239e-08
 1.447605e-08
 8.695992e-09
 -4.215168e-09
 -3.122768e-08
 -8.721536e-08
 -1.985252e-07
 -2.265090e-07
 5.912573e-08
 3.067324e-07
 2.633855e-07
 1.312905e-07
 1.752479e-05
 2.009890e-08
 0.000000e+00
 0.000000e+00
 1.983359e-09
 3.861708e-09
 5.529215e-09
 6.882729e-09
 7.833650e-09
 8.330639e-09
 8.391274e-09
 8.132946e-09
 7.784262e-09
 7.655013e-09
 8.053945e-09