<VTKFile type="UnstructuredGrid"  version="0.1"   >
<UnstructuredGrid>  
<Piece  NumberOfPoints="     2601"  NumberOfCells="     5000">  
<Points>  
<DataArray  type="Float64"  NumberOfComponents="3"  format="ascii">  
 0.000000 0.000000 0.000000 
 0.020000 0.000000 0.000000 
 0.040000 0.000000 0.000000 
 0.060000 0.000000 0.000000 
 0.080000 0.000000 0.000000 
 0.100000 0.000000 0.000000 
 0.120000 0.000000 0.000000 
 0.140000 0.000000 0.000000 
 0.160000 0.000000 0.000000 
 0.180000 0.000000 0.000000 
 0.200000 0.000000 0.000000 
 0.220000 0.000000 0.000000 
 0.240000 0.000000 0.000000 
 0.260000 0.000000 0.000000 
 0.280000 0.000000 0.000000 
 0.300000 0.000000 0.000000 
 0.320000 0.000000 0.000000 
 0.340000 0.000000 0.000000 
 0.360000 0.000000 0.000000 
 0.380000 0.000000 0.000000 
 0.400000 0.000000 0.000000 
 0.420000 0.000000 0.000000 
 0.440000 0.000000 0.000000 
 0.460000 0.000000 0.000000 
 0.480000 0.000000 0.000000 
 0.500000 0.000000 0.000000 
 0.520000 0.000000 0.000000 
 0.540000 0.000000 0.000000 
 0.560000 0.000000 0.000000 
 0.580000 0.000000 0.000000 
 0.600000 0.000000 0.000000 
 0.620000 0.000000 0.000000 
 0.640000 0.000000 0.000000 
 0.660000 0.000000 0.000000 
 0.680000 0.000000 0.000000 
 0.700000 0.000000 0.000000 
 0.720000 0.000000 0.000000 
 0.740000 0.000000 0.000000 
 0.760000 0.000000 0.000000 
 0.780000 0.000000 0.000000 
 0.800000 0.000000 0.000000 
 0.820000 0.000000 0.000000 
 0.840000 0.000000 0.000000 
 0.860000 0.000000 0.000000 
 0.880000 0.000000 0.000000 
 0.900000 0.000000 0.000000 
 0.920000 0.000000 0.000000 
 0.940000 0.000000 0.000000 
 0.960000 0.000000 0.000000 
 0.980000 0.000000 0.000000 
 1.000000 0.000000 0.000000 
 0.000000 0.020000 0.000000 
 0.020000 0.020000 0.000000 
 0.040000 0.020000 0.000000 
 0.060000 0.020000 0.000000 
 0.080000 0.020000 0.000000 
 0.100000 0.020000 0.000000 
 0.120000 0.020000 0.000000 
 0.140000 0.020000 0.000000 
 0.160000 0.020000 0.000000 
 0.180000 0.020000 0.000000 
 0.200000 0.020000 0.000000 
 0.220000 0.020000 0.000000 
 0.240000 0.020000 0.000000 
 0.260000 0.020000 0.000000 
 0.280000 0.020000 0.000000 
 0.300000 0.020000 0.000000 
 0.320000 0.020000 0.000000 
 0.340000 0.020000 0.000000 
 0.360000 0.020000 0.000000 
 0.380000 0.020000 0.000000 
 0.400000 0.020000 0.000000 
 0.420000 0.020000 0.000000 
 0.440000 0.020000 0.000000 
 0.460000 0.020000 0.000000 
 0.480000 0.020000 0.000000 
 0.500000 0.020000 0.000000 
 0.520000 0.020000 0.000000 
 0.540000 0.020000 0.000000 
 0.560000 0.020000 0.000000 
 0.580000 0.020000 0.000000 
 0.600000 0.020000 0.000000 
 0.620000 0.020000 0.000000 
 0.640000 0.020000 0.000000 
 0.660000 0.020000 0.000000 
 0.680000 0.020000 0.000000 
 0.700000 0.020000 0.000000 
 0.720000 0.020000 0.000000 
 0.740000 0.020000 0.000000 
 0.760000 0.020000 0.000000 
 0.780000 0.020000 0.000000 
 0.800000 0.020000 0.000000 
 0.820000 0.020000 0.000000 
 0.840000 0.020000 0.000000 
 0.860000 0.020000 0.000000 
 0.880000 0.020000 0.000000 
 0.900000 0.020000 0.000000 
 0.920000 0.020000 0.000000 
 0.940000 0.020000 0.000000 
 0.960000 0.020000 0.000000 
 0.980000 0.020000 0.000000 
 1.000000 0.020000 0.000000 
 0.000000 0.040000 0.000000 
 0.020000 0.040000 0.000000 
 0.040000 0.040000 0.000000 
 0.060000 0.040000 0.000000 
 0.080000 0.040000 0.000000 
 0.100000 0.040000 0.000000 
 0.120000 0.040000 0.000000 
 0.140000 0.040000 0.000000 
 0.160000 0.040000 0.000000 
 0.180000 0.040000 0.000000 
 0.200000 0.040000 0.000000 
 0.220000 0.040000 0.000000 
 0.240000 0.040000 0.000000 
 0.260000 0.040000 0.000000 
 0.280000 0.040000 0.000000 
 0.300000 0.040000 0.000000 
 0.320000 0.040000 0.000000 
 0.340000 0.040000 0.000000 
 0.360000 0.040000 0.000000 
 0.380000 0.040000 0.000000 
 0.400000 0.040000 0.000000 
 0.420000 0.040000 0.000000 
 0.440000 0.040000 0.000000 
 0.460000 0.040000 0.000000 
 0.480000 0.040000 0.000000 
 0.500000 0.040000 0.000000 
 0.520000 0.040000 0.000000 
 0.540000 0.040000 0.000000 
 0.560000 0.040000 0.000000 
 0.580000 0.040000 0.000000 
 0.600000 0.040000 0.000000 
 0.620000 0.040000 0.000000 
 0.640000 0.040000 0.000000 
 0.660000 0.040000 0.000000 
 0.680000 0.040000 0.000000 
 0.700000 0.040000 0.000000 
 0.720000 0.040000 0.000000 
 0.740000 0.040000 0.000000 
 0.760000 0.040000 0.000000 
 0.780000 0.040000 0.000000 
 0.800000 0.040000 0.000000 
 0.820000 0.040000 0.000000 
 0.840000 0.040000 0.000000 
 0.860000 0.040000 0.000000 
 0.880000 0.040000 0.000000 
 0.900000 0.040000 0.000000 
 0.920000 0.040000 0.000000 
 0.940000 0.040000 0.000000 
 0.960000 0.040000 0.000000 
 0.980000 0.040000 0.000000 
 1.000000 0.040000 0.000000 
 0.000000 0.060000 0.000000 
 0.020000 0.060000 0.000000 
 0.040000 0.060000 0.000000 
 0.060000 0.060000 0.000000 
 0.080000 0.060000 0.000000 
 0.100000 0.060000 0.000000 
 0.120000 0.060000 0.000000 
 0.140000 0.060000 0.000000 
 0.160000 0.060000 0.000000 
 0.180000 0.060000 0.000000 
 0.200000 0.060000 0.000000 
 0.220000 0.060000 0.000000 
 0.240000 0.060000 0.000000 
 0.260000 0.060000 0.000000 
 0.280000 0.060000 0.000000 
 0.300000 0.060000 0.000000 
 0.320000 0.060000 0.000000 
 0.340000 0.060000 0.000000 
 0.360000 0.060000 0.000000 
 0.380000 0.060000 0.000000 
 0.400000 0.060000 0.000000 
 0.420000 0.060000 0.000000 
 0.440000 0.060000 0.000000 
 0.460000 0.060000 0.000000 
 0.480000 0.060000 0.000000 
 0.500000 0.060000 0.000000 
 0.520000 0.060000 0.000000 
 0.540000 0.060000 0.000000 
 0.560000 0.060000 0.000000 
 0.580000 0.060000 0.000000 
 0.600000 0.060000 0.000000 
 0.620000 0.060000 0.000000 
 0.640000 0.060000 0.000000 
 0.660000 0.060000 0.000000 
 0.680000 0.060000 0.000000 
 0.700000 0.060000 0.000000 
 0.720000 0.060000 0.000000 
 0.740000 0.060000 0.000000 
 0.760000 0.060000 0.000000 
 0.780000 0.060000 0.000000 
 0.800000 0.060000 0.000000 
 0.820000 0.060000 0.000000 
 0.840000 0.060000 0.000000 
 0.860000 0.060000 0.000000 
 0.880000 0.060000 0.000000 
 0.900000 0.060000 0.000000 
 0.920000 0.060000 0.000000 
 0.940000 0.060000 0.000000 
 0.960000 0.060000 0.000000 
 0.980000 0.060000 0.000000 
 1.000000 0.060000 0.000000 
 0.000000 0.080000 0.000000 
 0.020000 0.080000 0.000000 
 0.040000 0.080000 0.000000 
 0.060000 0.080000 0.000000 
 0.080000 0.080000 0.000000 
 0.100000 0.080000 0.000000 
 0.120000 0.080000 0.000000 
 0.140000 0.080000 0.000000 
 0.160000 0.080000 0.000000 
 0.180000 0.080000 0.000000 
 0.200000 0.080000 0.000000 
 0.220000 0.080000 0.000000 
 0.240000 0.080000 0.000000 
 0.260000 0.080000 0.000000 
 0.280000 0.080000 0.000000 
 0.300000 0.080000 0.000000 
 0.320000 0.080000 0.000000 
 0.340000 0.080000 0.000000 
 0.360000 0.080000 0.000000 
 0.380000 0.080000 0.000000 
 0.400000 0.080000 0.000000 
 0.420000 0.080000 0.000000 
 0.440000 0.080000 0.000000 
 0.460000 0.080000 0.000000 
 0.480000 0.080000 0.000000 
 0.500000 0.080000 0.000000 
 0.520000 0.080000 0.000000 
 0.540000 0.080000 0.000000 
 0.560000 0.080000 0.000000 
 0.580000 0.080000 0.000000 
 0.600000 0.080000 0.000000 
 0.620000 0.080000 0.000000 
 0.640000 0.080000 0.000000 
 0.660000 0.080000 0.000000 
 0.680000 0.080000 0.000000 
 0.700000 0.080000 0.000000 
 0.720000 0.080000 0.000000 
 0.740000 0.080000 0.000000 
 0.760000 0.080000 0.000000 
 0.780000 0.080000 0.000000 
 0.800000 0.080000 0.000000 
 0.820000 0.080000 0.000000 
 0.840000 0.080000 0.000000 
 0.860000 0.080000 0.000000 
 0.880000 0.080000 0.000000 
 0.900000 0.080000 0.000000 
 0.920000 0.080000 0.000000 
 0.940000 0.080000 0.000000 
 0.960000 0.080000 0.000000 
 0.980000 0.080000 0.000000 
 1.000000 0.080000 0.000000 
 0.000000 0.100000 0.000000 
 0.020000 0.100000 0.000000 
 0.040000 0.100000 0.000000 
 0.060000 0.100000 0.000000 
 0.080000 0.100000 0.000000 
 0.100000 0.100000 0.000000 
 0.120000 0.100000 0.000000 
 0.140000 0.100000 0.000000 
 0.160000 0.100000 0.000000 
 0.180000 0.100000 0.000000 
 0.200000 0.100000 0.000000 
 0.220000 0.100000 0.000000 
 0.240000 0.100000 0.000000 
 0.260000 0.100000 0.000000 
 0.280000 0.100000 0.000000 
 0.300000 0.100000 0.000000 
 0.320000 0.100000 0.000000 
 0.340000 0.100000 0.000000 
 0.360000 0.100000 0.000000 
 0.380000 0.100000 0.000000 
 0.400000 0.100000 0.000000 
 0.420000 0.100000 0.000000 
 0.440000 0.100000 0.000000 
 0.460000 0.100000 0.000000 
 0.480000 0.100000 0.000000 
 0.500000 0.100000 0.000000 
 0.520000 0.100000 0.000000 
 0.540000 0.100000 0.000000 
 0.560000 0.100000 0.000000 
 0.580000 0.100000 0.000000 
 0.600000 0.100000 0.000000 
 0.620000 0.100000 0.000000 
 0.640000 0.100000 0.000000 
 0.660000 0.100000 0.000000 
 0.680000 0.100000 0.000000 
 0.700000 0.100000 0.000000 
 0.720000 0.100000 0.000000 
 0.740000 0.100000 0.000000 
 0.760000 0.100000 0.000000 
 0.780000 0.100000 0.000000 
 0.800000 0.100000 0.000000 
 0.820000 0.100000 0.000000 
 0.840000 0.100000 0.000000 
 0.860000 0.100000 0.000000 
 0.880000 0.100000 0.000000 
 0.900000 0.100000 0.000000 
 0.920000 0.100000 0.000000 
 0.940000 0.100000 0.000000 
 0.960000 0.100000 0.000000 
 0.980000 0.100000 0.000000 
 1.000000 0.100000 0.000000 
 0.000000 0.120000 0.000000 
 0.020000 0.120000 0.000000 
 0.040000 0.120000 0.000000 
 0.060000 0.120000 0.000000 
 0.080000 0.120000 0.000000 
 0.100000 0.120000 0.000000 
 0.120000 0.120000 0.000000 
 0.140000 0.120000 0.000000 
 0.160000 0.120000 0.000000 
 0.180000 0.120000 0.000000 
 0.200000 0.120000 0.000000 
 0.220000 0.120000 0.000000 
 0.240000 0.120000 0.000000 
 0.260000 0.120000 0.000000 
 0.280000 0.120000 0.000000 
 0.300000 0.120000 0.000000 
 0.320000 0.120000 0.000000 
 0.340000 0.120000 0.000000 
 0.360000 0.120000 0.000000 
 0.380000 0.120000 0.000000 
 0.400000 0.120000 0.000000 
 0.420000 0.120000 0.000000 
 0.440000 0.120000 0.000000 
 0.460000 0.120000 0.000000 
 0.480000 0.120000 0.000000 
 0.500000 0.120000 0.000000 
 0.520000 0.120000 0.000000 
 0.540000 0.120000 0.000000 
 0.560000 0.120000 0.000000 
 0.580000 0.120000 0.000000 
 0.600000 0.120000 0.000000 
[...]
<PointData  Scalars="U"> 
<DataArray  type="Float64"  Name="U"  format="ascii"> 
 0.000000e+00
 0.000000e+00
 0.000000e+00
 0.000000e+00
 0.000000e+00
 0.000000e+00
 0.000000e+00
 0.000000e+00
 0.000000e+00
 0.000000e+00
 0.000000e+00
 0.000000e+00
 0.000000e+00
 0.000000e+00
 0.000000e+00
 0.000000e+00
 0.000000e+00
 0.000000e+00
 0.000000e+00
 0.000000e+00
 0.000000e+00
 0.000000e+00
 0.000000e+00
 0.000000e+00
 0.000000e+00
 0.000000e+00
 0.000000e+00
 0.000000e+00
 0.000000e+00
 0.000000e+00
 0.000000e+00
 0.000000e+00
 0.000000e+00
 0.000000e+00
 0.000000e+00
 0.000000e+00
 0.000000e+00
 0.000000e+00
 0.000000e+00
 0.000000e+00
 0.000000e+00
 0.000000e+00
 0.000000e+00
 0.000000e+00
 0.000000e+00
 0.000000e+00
 0.000000e+00
 0.000000e+00
 0.000000e+00
 0.000000e+00
 0.000000e+00
 0.000000e+00
 -2.747448e-09
 -5.320881e-09
 -7.118412e-09
 -6.768034e-09
 -2.250349e-09
 8.032919e-09
 2.381796e-08
 4.335455e-08
 6.672070e-08
 1.001292e-07
 1.604181e-07
 2.804324e-07
 2.479181e-07
 1.727445e-05
 -1.525773e-06
 -2.226950e-07
 6.869607e-07
 9.691718e-08
 -5.560603e-09
 -1.631023e-08
 -1.292382e-08
 -9.786434e-09
 -9.420164e-09
 -1.368242e-08
 -2.795226e-08
 -6.809007e-08
 -1.692145e-07
 -2.093035e-07
 3.605280e-08
 2.319256e-07
 1.200316e-07
 -1.315314e-07
 -1.283583e-06
 -1.169943e-07
 5.934651e-07
 -1.160740e-07
 -3.729661e-08
 5.500345e-08
 -5.483812e-08
 9.531194e-08
 2.499776e-07
 1.530172e-07
 5.024521e-08
 8.339058e-09
 -9.060955e-10
 1.952512e-09
 5.853275e-09
 6.553627e-09
 3.814173e-09
 0.000000e+00
 0.000000e+00
 -5.596882e-09
 -1.127791e-08
 -1.624566e-08
 -1.775204e-08
 -1.063183e-08
 1.021285e-08
 4.416837e-08
 8.392294e-08
 1.250762e-07
 1.762514e-07
 2.639473e-07
 4.540755e-07
 1.061720e-06
 3.787706e-08
 -1.446155e-06
 1.702426e-05
 -2.495353e-07
 -1.171272e-07
 -6.921252e-08
 -3.966258e-08
 -2.440401e-08
 -1.681114e-08
 -1.470419e-08
 -1.889999e-08
 -3.385458e-08
 -7.763693e-08
 -2.287322e-07
 -1.282149e-06
 3.723905e-08
 9.304274e-07
 2.552256e-07
 4.772607e-08
 -8.921865e-08
 1.729826e-05
 -3.498982e-07
 -1.430425e-06
 -1.412230e-07
 6.603336e-07
 -1.031503e-06
 1.009889e-07
 9.198953e-07
 2.256652e-07
 3.689657e-08
 -1.377226e-08
 -1.238283e-08
 4.015390e-09
 1.558278e-08
 1.669444e-08
 1.004220e-08
 0.000000e+00
 0.000000e+00
 -8.224542e-09
 -1.761717e-08
 -2.834540e-08
 -3.723209e-08
 -3.381611e-08
 -2.246835e-09
 5.921498e-08
 1.255519e-07
 1.761012e-07
 2.205023e-07
 2.831680e-07
 3.822309e-07
 4.366807e-07
 2.577578e-07
 5.076255e-07
 -4.085698e-07
 -1.542454e-06
 -3.295830e-07
 -1.091690e-07
 -4.919639e-08
 -2.910564e-08
 -1.877453e-08
 -1.409645e-08
 -1.492938e-08
 -1.784863e-08
 -1.103846e-08
 2.913802e-08
 4.657209e-08
 1.754460e-05
 9.318449e-08
 1.042280e-07
 1.012804e-07
 6.374873e-07
 -1.033515e-07
 -1.344341e-06
 -4.627117e-07
 1.729264e-05
 9.166282e-08
 1.104099e-07
 1.752705e-05
 4.563090e-09
 -3.558134e-08
 -8.839252e-08
 -8.282619e-08
 -3.649822e-08
 1.352278e-08
 3.715789e-08
 3.474269e-08
 1.937830e-08
 0.000000e+00
 0.000000e+00
 -9.553667e-09
 -2.214208e-08
 -4.098742e-08
 -6.740658e-08
 -8.749641e-08
 -5.094780e-08
 7.036749e-08
 1.897479e-07
 2.354778e-07
 2.456701e-07
 2.607815e-07
 2.775152e-07
 2.524110e-07
 1.476662e-07
 -6.555214e-08
 -4.072167e-07
 -4.056797e-07
 -1.088635e-07
 -2.344387e-08
 -3.198431e-08
 -2.718103e-08
 -1.543087e-08
 -7.424948e-09
 -7.454805e-09
 -9.404479e-09
 2.392678e-08
 2.209050e-07
 9.744609e-07
 1.711525e-07
 -1.123271e-06
 -9.054202e-08
 -4.024887e-08
 -1.046626e-06
 -4.327923e-09
 5.704025e-07
 -5.347512e-07
 -2.659934e-07
 -5.627064e-07
 7.692836e-07
 8.362547e-08
 -1.315109e-06
 -3.706870e-07
 -2.712379e-07
 -1.980607e-07
 -6.290482e-08
 5.621741e-08
 8.659054e-08
 6.447542e-08
 3.181413e-08
 0.000000e+00
 0.000000e+00
 -7.919417e-09
 -2.031202e-08
 -4.447113e-08
 -9.512638e-08
 -1.981297e-07
 -2.141221e-07
 8.776617e-08
 3.550417e-07
 3.261208e-07
 2.578994e-07
 2.293672e-07
 2.121156e-07
 1.709320e-07
 6.493883e-08
 -2.001356e-07
 -1.416927e-06
 -2.224527e-07
 6.654344e-07
 6.989551e-08
 -3.504718e-08
 -3.183309e-08
 -7.186895e-09
 8.687448e-09
 5.570535e-09
 -2.108537e-08
 -7.784416e-08
 -2.139969e-09
 3.588671e-07
 3.942976e-07
 9.739911e-08
 7.333325e-08
 1.744650e-07
 1.589976e-07
 1.755412e-05
 6.311332e-08
 3.455266e-08
 1.712190e-05
 -1.585018e-06
 -1.521480e-07
 6.019251e-07
 -2.895636e-07
 -4.406569e-07
 -4.566729e-07
 -4.104415e-07
 -7.000909e-08
 2.150509e-07
 1.846601e-07
 9.845102e-08
 4.191849e-08
 0.000000e+00
 0.000000e+00
 -2.228670e-09
 -7.868838e-09
 -2.386477e-08
 -7.084275e-08
 -2.267784e-07
 -1.279304e-06
 5.725879e-08
 9.883102e-07
 3.699490e-07
 2.252171e-07
 1.862794e-07
 1.706379e-07
 1.490313e-07
 1.088331e-07
 5.370387e-08
 -6.331358e-08
 1.731812e-05
 -1.801168e-07
 -1.474913e-07
 -1.189333e-07
 -5.140658e-08
 1.297350e-08
 4.468669e-08
 4.107957e-08
 -1.353933e-09
 -1.471309e-07
 -1.181312e-06
 1.568126e-07
 1.039538e-06
 3.767902e-07
 2.765685e-07
 4.218327e-07
 1.060908e-06
 1.645578e-07
 -1.031628e-06
 6.269956e-07
 -1.907572e-07
 -1.562680e-06
 1.694298e-05
 -4.178792e-07
 -4.214577e-07
 -4.518040e-07
 -5.304232e-07
 -1.501868e-06
 -1.044882e-07
 8.613304e-07
 2.530247e-07
 9.871103e-08
 3.853067e-08
 0.000000e+00
 0.000000e+00
 6.411967e-09
 1.324376e-08
 2.124861e-08
 3.263566e-08
 5.703294e-08
 3.935018e-08
 1.751109e-05
 6.678681e-08
 1.117484e-07
 1.136651e-07
 1.259336e-07
 1.372851e-07
 1.476804e-07
 1.739522e-07
 2.916803e-07
 8.705240e-07
 -1.037119e-07
 -1.478250e-06
 -4.439847e-07
 -2.427398e-07
 -6.600440e-08
 7.203155e-08
 1.161209e-07
 1.078729e-07
 9.076385e-08
 8.281355e-08
 3.396185e-08
 1.751058e-05
 1.327708e-07
 2.478959e-07
 2.897965e-07
 3.645981e-07
 4.083697e-07
 1.766077e-07
 -4.602543e-08
 3.425805e-08
 1.522305e-08
 3.953096e-07
 -4.886326e-07
 -1.733935e-06
 -6.519560e-07
 -4.450090e-07
 -2.877007e-07
 -1.868425e-07
 1.737248e-05
 -2.192026e-08
 3.947812e-08
 3.219392e-08
 1.936262e-08
 0.000000e+00
 0.000000e+00
 1.467466e-08
 3.334914e-08
 6.373051e-08
 1.273540e-07
 3.004547e-07
 9.474695e-07
 4.424507e-08
 -1.265231e-06
 -1.860538e-07
 -4.048932e-09
 6.772567e-08
 1.070460e-07
 1.374731e-07
 1.761243e-07
 2.415628e-07
 2.529903e-07
 -4.682103e-08
 -4.047544e-07
 -4.918773e-07
 -4.011203e-07
 -4.385084e-08
 2.508549e-07
 2.354218e-07
 1.774592e-07
 1.770086e-07
 2.785050e-07
 8.041957e-07
 -1.407276e-07
 -1.182085e-06
 1.321541e-07
 2.645169e-07
 2.508358e-07
 2.066300e-07
 9.519257e-08
 -2.546692e-08
 -8.900427e-08
 -9.574247e-08
 -7.645523e-08
 -3.001083e-07
 -5.992880e-07
 -6.024159e-07
 -4.255475e-07
 -7.785002e-08
 7.523710e-07
 -3.187400e-08
 -1.281795e-06
 -1.876961e-07
 -2.442635e-08
 7.517346e-09
 0.000000e+00
 0.000000e+00
 1.942928e-08
 4.348799e-08
 7.934532e-08
 1.400545e-07
 2.419522e-07
 3.018182e-07
 6.250943e-08
 -2.130723e-07
 -1.709334e-07
 -4.126031e-08
 3.596602e-08
 8.523694e-08
 1.204559e-07
 1.477619e-07
 1.596707e-07
 1.171548e-07
 -1.751517e-08
 -1.872174e-07
 -3.798793e-07
 -1.410384e-06
 -4.379466e-08
 9.110000e-07
 3.123668e-07
 1.903247e-07
 1.874195e-07
 2.225699e-07
 1.116041e-07
 -1.198757e-06
 -1.619627e-07
 7.829850e-07
 2.625566e-07
 1.534877e-07
 9.906284e-08
 2.406266e-08
 -8.488949e-08
 -2.453603e-07
 -3.351469e-07
 -1.575233e-07
 -8.829050e-08
 -3.286854e-07
 -5.629702e-07
 -5.816424e-07
 -1.806531e-07
 2.226149e-07
 1.057699e-07
 -1.132899e-07
 -6.783709e-08
 2.074847e-08
 2.941487e-08
 0.000000e+00
 0.000000e+00
 1.994271e-08
 4.281490e-08
 7.165735e-08
 1.076670e-07
 1.399726e-07
 1.273537e-07
 3.455186e-08
 -6.290784e-08
 -7.460250e-08
 -2.652378e-08
 2.988466e-08
 7.649926e-08
 1.097866e-07
 1.284150e-07
 1.277509e-07
 9.896345e-08
 4.416527e-08
 -6.629127e-09
 -1.470235e-08
 -3.502402e-08
 1.744869e-05
 2.092597e-08
 8.499683e-08
 1.111220e-07
 1.555978e-07
 1.993001e-07
 2.072809e-07
 8.717799e-08
 1.744444e-05
 -3.753582e-08
 1.864473e-08
 2.713933e-08
 2.158476e-08
 -1.497157e-08
 -9.907195e-08
 -3.056605e-07
 -1.428120e-06
 -1.915017e-07
 6.057491e-07
 -1.762936e-07
 -5.695638e-07
 -1.729045e-06
 -4.568194e-07
 5.306133e-07
 1.864370e-07
 2.253234e-07
 1.748230e-07
 1.458145e-07
 8.846146e-08
 0.000000e+00
 0.000000e+00
 1.758472e-08
 3.605068e-08
 5.538372e-08
 7.270990e-08
 7.908242e-08
 6.064721e-08
 1.557118e-08
 -2.846200e-08
 -3.896435e-08
 -1.193808e-08
 3.512095e-08
 8.140488e-08
 1.131899e-07
 1.270880e-07
 1.254334e-07
 1.130840e-07
 1.030602e-07
 1.287665e-07
 2.777038e-07
 9.167695e-07
 1.734761e-08
 -1.281485e-06
 -1.868563e-07
 1.652997e-08
 1.197130e-07
 2.123133e-07
 3.762181e-07
 9.789577e-07
 2.333706e-08
 -1.318410e-06
 -2.519617e-07
 -7.929491e-08
 -2.456032e-08
 -1.324142e-08
 -2.238070e-08
 -3.529088e-08
 -1.060884e-07
 1.729604e-05
 -2.317407e-07
 -2.768717e-07
 -3.653842e-07
 -5.359684e-07
 1.677074e-05
 -1.474678e-06
 6.191928e-09
 7.891662e-07
 3.137984e-07
 3.314378e-07
 1.790313e-07
 0.000000e+00
 0.000000e+00
 1.422614e-08
 2.800143e-08
 4.004835e-08
 4.732599e-08
 4.468301e-08
 2.725098e-08
 -3.296510e-09
 -3.403540e-08
 -4.454725e-08
 -1.762068e-08
 4.245500e-08
 1.028383e-07
 1.353777e-07
 1.414173e-07
 1.350224e-07
 1.280910e-07
 1.325487e-07
 1.665216e-07
 2.506916e-07
 3.031063e-07
 6.484660e-08
 -2.039893e-07
 -1.512835e-07
 -6.882452e-09
 9.290298e-08
 1.813447e-07
 2.841795e-07
 3.256142e-07
 6.052839e-08
 -2.372547e-07
 -2.114873e-07
 -9.606051e-08
 -3.286745e-08
 7.962543e-09
 6.132638e-08
 2.101671e-07
 8.225643e-07
 -1.221942e-07
 -1.473388e-06
 -4.175903e-07
 -1.695295e-07
 3.896454e-07
 -1.453946e-06
 -1.424094e-06
 1.786362e-05
 -1.166202e-06
 4.199098e-08
 8.880268e-07
 2.167971e-07
 0.000000e+00
 0.000000e+00
 1.118707e-08
 2.137929e-08
 2.905518e-08
 3.176183e-08
 2.618620e-08
 9.158854e-09
 -2.059046e-08
 -6.005949e-08
 -9.126332e-08
 -6.295038e-08
 5.061589e-08
 1.587658e-07
 1.858256e-07
 1.672112e-07
 1.450986e-07
 1.329046e-07
 1.339884e-07
 1.495740e-07
 1.693562e-07
 1.519707e-07
 6.060464e-08
 -3.193332e-08
 -3.812527e-08
 1.463197e-08
 7.649373e-08
 1.319082e-07
 1.692538e-07
 1.506863e-07
 4.606783e-08
 -6.505727e-08
 -9.149872e-08
 -5.988115e-08
 -1.906626e-08
 2.196666e-08
 7.652146e-08
 1.640116e-07
 2.048442e-07
 -5.371845e-08
 -3.435395e-07
 -3.062749e-07
 -1.735534e-07
 -3.945082e-09
 2.146619e-07
 1.829852e-05
 -7.423424e-08
 -1.373840e-06
 1.714644e-05
 -1.352113e-07
 -3.212926e-08
 0.000000e+00
 0.000000e+00
 9.053004e-09
 1.710621e-08
 2.285868e-08
 2.447746e-08
 1.946716e-08
 4.386250e-09
 -2.660848e-08
 -8.618848e-08
 -1.984270e-07
 -2.234854e-07
 6.852584e-08
 3.234007e-07
 2.782347e-07
 1.904980e-07
 1.442319e-07
 1.244851e-07
 1.196373e-07
 1.220122e-07
 1.210896e-07
 1.021799e-07
 6.179880e-08
 2.406461e-08
 1.575293e-08
 3.562925e-08
 6.680600e-08
 9.478644e-08
 1.067612e-07
 8.919090e-08
 4.175018e-08
 -7.824239e-09
 -2.989752e-08
 -2.354203e-08
 -2.700627e-09
 2.424504e-08
 5.492365e-08
 7.914126e-08
 5.872230e-08
 -3.654970e-08
 -1.258441e-07
 -1.242225e-07
 -1.211137e-07
 -9.154475e-07
 1.104461e-06
 1.129423e-06
 -9.266832e-07
 3.630210e-07
 -3.651819e-07
 -1.493677e-06
 -2.991529e-07
 0.000000e+00
 0.000000e+00
 7.866591e-09
 1.504134e-08
 2.068604e-08
 2.369154e-08
 2.250506e-08
 1.451096e-08
 -6.489774e-09
 -6.025008e-08
 -2.240460e-07
 -1.285347e-06
 4.111210e-08
 9.601418e-07
 3.277887e-07
 1.685229e-07
 1.184442e-07
 1.018958e-07
 9.749135e-08
 9.646400e-08
 9.234811e-08
 8.019772e-08
 6.106083e-08
 4.410106e-08
 3.887425e-08
 4.648740e-08
 6.062913e-08
 7.293812e-08
 7.569808e-08
 6.397360e-08
 4.011314e-08
 1.521037e-08
 8.099364e-10
 -2.148558e-12
 8.840159e-09
 2.199648e-08
 3.386089e-08
 3.542363e-08
 1.527376e-08
 -2.210883e-08
 -3.577619e-08
 2.557291e-08
 1.790572e-07
 3.323719e-07
 1.789045e-05
 1.859174e-07
 -9.130491e-08
 -1.185510e-07
 -2.501258e-07
 -4.053484e-07
 -2.514851e-07
 0.000000e+00
 0.000000e+00
 7.346699e-09
 1.446145e-08
 2.108728e-08
 2.696040e-08
 3.190174e-08
 3.599161e-08
 3.988623e-08
 4.586063e-08
 6.360192e-08
 3.791604e-08
 1.750004e-05
 4.430300e-08
 7.628486e-08
 6.483534e-08
 6.544180e-08
 6.869546e-08
 7.214146e-08
 7.407974e-08
 7.268595e-08
 6.694133e-08
 5.825961e-08
 5.060197e-08
 4.780319e-08
 5.061096e-08
 5.641153e-08
 6.098378e-08
 6.039394e-08
 5.273309e-08
 3.962597e-08
 2.592260e-08
 1.664309e-08
 1.382723e-08
 1.617091e-08
 2.041451e-08
 2.209319e-08
 1.566916e-08
 -3.046717e-09
 -2.874704e-08
 -2.881150e-08
 7.876139e-08
 3.959480e-07
 1.177602e-06
 2.748173e-07
 -1.172792e-06
 -2.573620e-07
 -1.790344e-07
 -1.920167e-07
 -2.017670e-07
 -1.290629e-07
 0.000000e+00
 0.000000e+00
 7.053332e-09
 1.436716e-08
 2.225306e-08
 3.120174e-08
 4.223463e-08
 5.786370e-08
 8.493183e-08
 1.444227e-07
 3.121733e-07
 9.522632e-07
 4.018383e-08
 -1.280327e-06
 -2.142493e-07
 -4.668523e-08
 1.046571e-08
 3.533973e-08
 4.823259e-08
 5.513311e-08
 5.782464e-08
 5.714884e-08
 5.442448e-08
 5.163021e-08
 5.050357e-08
 5.148200e-08
 5.347587e-08
 5.452415e-08
 5.280158e-08
 4.757673e-08
 3.976814e-08
 3.161072e-08
 2.540009e-08
 2.220344e-08
 2.143335e-08
 2.115938e-08
 1.847596e-08
 9.602299e-09
 -1.051709e-08
 -5.056662e-08
 -1.257865e-07
 -8.293393e-08
 3.186313e-07
 6.277419e-07
 3.070495e-07
 -1.256009e-07
 -2.064583e-07
 -1.573144e-07
 -1.318216e-07
 -1.081255e-07
 -6.369401e-08
 0.000000e+00
 0.000000e+00
 6.506107e-09
 1.372532e-08
 2.243055e-08
 3.356703e-08
 4.855469e-08
 7.008611e-08
 1.039545e-07
 1.621894e-07
 2.603916e-07
 3.147821e-07
 6.767621e-08
 -2.186001e-07
 -1.904187e-07
 -7.760702e-08
 -1.879147e-08
 1.217109e-08
 2.974336e-08
 4.027495e-08
 4.644372e-08
 4.955042e-08
 5.062401e-08
 5.074514e-08
 5.081687e-08
 5.118419e-08
 5.151009e-08
 5.102730e-08
 4.901330e-08
 4.525495e-08
 4.027040e-08
 3.511694e-08
 3.084390e-08
 2.793047e-08
 2.604628e-08
 2.417470e-08
 2.088315e-08
 1.430883e-08
 3.689052e-10
 -3.700418e-08
 -1.716238e-07
 -1.192997e-06
 1.647071e-07
 1.054075e-06
 2.899347e-07
 -1.880015e-08
 -1.220714e-07
 -1.091448e-07
 -6.900102e-08
 -4.065573e-08
 -2.067592e-08
 0.000000e+00
 0.000000e+00
 5.254671e-09
 1.162169e-08
 2.024333e-08
 3.226553e-08
 4.879955e-08
 7.101357e-08
 1.002102e-07
 1.361209e-07
 1.669130e-07
 1.507947e-07
 5.186910e-08
 -5.547982e-08
 -8.227650e-08
 -5.495095e-08
 -2.269480e-08
 1.127119e-09
 1.774339e-08
 2.957923e-08
 3.810067e-08
 4.401040e-08
 4.775074e-08
 4.980762e-08
 5.070909e-08
 5.084965e-08
 5.036077e-08
 4.915345e-08
 4.710388e-08
 4.426074e-08
 4.094067e-08
 3.763700e-08
 3.478184e-08
 3.250944e-08
 3.058190e-08
 2.857167e-08
 2.636077e-08
 2.504869e-08
 2.824468e-08
 4.316479e-08
 8.260223e-08
 8.393715e-08
 1.755492e-05
 6.019923e-08
 -2.771264e-09
 -1.218580e-07
 -1.554405e-07
 -7.727930e-08
 1.348880e-08
 3.523215e-08
 1.919349e-08
 0.000000e+00
 0.000000e+00
 2.897955e-09
 7.265096e-09
 1.464546e-08
 2.645613e-08
 4.341579e-08
 6.488350e-08
 8.842887e-08
 1.089733e-07
 1.164995e-07
 9.708828e-08
 4.871639e-08
 -2.718141e-09
 -2.866759e-08
 -2.853634e-08
 -1.668268e-08
 -2.731888e-09
 1.032202e-08
 2.206665e-08
 3.233282e-08
 4.065674e-08
 4.657325e-08
 5.000139e-08
 5.131281e-08
 5.110338e-08
 4.992348e-08
 4.815396e-08
 4.603848e-08
 4.377758e-08
 4.158435e-08
 3.965395e-08
 3.806766e-08
 3.670343e-08
 3.524035e-08
 3.335850e-08
 3.136020e-08
 3.191849e-08
 4.503045e-08
 1.012191e-07
 2.892726e-07
 9.684906e-07
 7.764328e-08
 -1.277036e-06
 -3.117320e-07
 -3.131725e-07
 -3.325541e-07
 -5.264160e-08
 1.929930e-07
 1.444388e-07
 5.546548e-08
 0.000000e+00
 0.000000e+00
 -9.070433e-10
 -1.134840e-10
 4.504492e-09
 1.525935e-08
 3.323059e-08
 5.629823e-08
 7.880392e-08
 9.366112e-08
 9.469670e-08
 7.872908e-08
 4.932805e-08
 1.801464e-08
 -3.617952e-09
 -1.233986e-08
 -1.157317e-08
 -5.345072e-09
 4.201276e-09
 1.596141e-08
 2.850586e-08
 3.978566e-08
 4.796899e-08
 5.234990e-08
 5.342475e-08
 5.229450e-08
 5.005124e-08
 4.749456e-08
 4.512334e-08
 4.322583e-08
 4.194611e-08
 4.129027e-08
 4.109326e-08
 4.098657e-08
 4.039557e-08
 3.858181e-08
 3.481553e-08
 2.918874e-08
 2.643653e-08
 5.193142e-08
 1.695023e-07
 3.191626e-07
 1.493874e-07
 -1.601623e-07
 -2.393944e-07
 -3.499884e-07
 -1.401313e-06
 -7.835336e-08
 8.378747e-07
 2.076183e-07
 5.298252e-08
 0.000000e+00
 0.000000e+00
 -6.324330e-09
 -1.124652e-08
 -1.195285e-08
 -3.738783e-09
 1.726892e-08
 4.804189e-08
 7.701134e-08
 9.258157e-08
 9.106077e-08
 7.548879e-08
 5.189760e-08
 2.727118e-08
 7.293817e-09
 -5.579775e-09
 -1.151188e-08
 -1.109744e-08
 -4.224013e-09
 8.930837e-09
 2.597878e-08
 4.222831e-08
 5.338866e-08
 5.810343e-08
 5.772902e-08
 5.454184e-08
 5.043996e-08
 4.661566e-08
 4.371242e-08
 4.203450e-08
 4.165532e-08
 4.243295e-08
 4.399310e-08
 4.572447e-08
 4.676337e-08
 4.583649e-08
 4.064806e-08
 2.608182e-08
 -1.027348e-08
 -9.399735e-08
 -9.804362e-08
 1.650405e-07
 3.046971e-07
 1.325575e-07
 -2.577566e-09
 -3.239507e-08
 -7.447025e-08
 1.738008e-05
 -7.570105e-08
 -3.394489e-08
 -2.579469e-08
 0.000000e+00
 0.000000e+00
 -1.289285e-08
 -2.618746e-08
 -3.732259e-08
 -3.680175e-08
 -1.028282e-08
 4.161896e-08
 9.029631e-08
 1.097537e-07
 1.018866e-07
 8.045659e-08
 5.528821e-08
 3.124681e-08
 1.061384e-08
 -5.794433e-09
 -1.760879e-08
 -2.332148e-08
 -1.935837e-08
 -2.480315e-09
 2.432455e-08
 5.035056e-08
 6.575226e-08
 6.907516e-08
 6.475171e-08
 5.757385e-08
 5.045969e-08
 4.476265e-08
 4.104049e-08
 3.950934e-08
 4.016835e-08
 4.275338e-08
 4.668290e-08
 5.109754e-08
 5.495529e-08
 5.695414e-08
 5.477389e-08
 4.220564e-08
 -1.465456e-09
 -1.570175e-07
 -1.220808e-06
 7.943263e-08
 9.484000e-07
 2.739681e-07
 1.290560e-07
 2.253351e-07
 8.372210e-07
 -8.743520e-08
 -1.408351e-06
 -3.251498e-07
 -1.186282e-07
 0.000000e+00
 0.000000e+00
 -1.863048e-08
 -4.204138e-08
 -7.282813e-08
 -9.834435e-08
 -6.976885e-08
 3.911580e-08
 1.391831e-07
 1.559186e-07
 1.250867e-07
 8.831294e-08
 5.718048e-08
 3.156537e-08
 9.609911e-09
 -1.040435e-08
 -2.936423e-08
 -4.512614e-08
 -4.856652e-08
 -2.550531e-08
 2.363860e-08
 7.088672e-08
 9.123775e-08
 8.761820e-08
 7.424540e-08
 6.027703e-08
 4.894151e-08
 4.088742e-08
 3.614612e-08
 3.475013e-08
 3.669915e-08
 4.168058e-08
 4.886093e-08
 5.700018e-08
 6.488207e-08
 7.175622e-08
 7.750172e-08
 8.256498e-08
 8.841557e-08
 1.027205e-07
 6.708406e-08
 1.751093e-05
 3.399541e-08
 5.776468e-08
 7.213440e-08
 1.477518e-07
 1.850802e-07
 -7.838814e-08
 -3.725245e-07
 -3.248626e-07
 -1.524948e-07
 0.000000e+00
 0.000000e+00
 -1.943822e-08
 -4.893233e-08
 -1.048604e-07
 -2.143661e-07
 -2.393617e-07
 4.966409e-08
 2.988752e-07
 2.458009e-07
 1.480172e-07
 8.918059e-08
 5.344929e-08
 2.826240e-08
 6.757708e-09
 -1.564686e-08
 -4.306723e-08
 -7.769585e-08
 -1.066962e-07
 -8.108886e-08
 2.561223e-08
 1.247178e-07
 1.422665e-07
 1.145166e-07
 8.329384e-08
 5.997920e-08
 4.407550e-08
 3.371600e-08
 2.790762e-08
 2.659180e-08
 3.010042e-08
 3.833056e-08
 5.008378e-08
 6.324739e-08
 7.593000e-08
 8.777554e-08
 1.010113e-07
 1.226737e-07
 1.737933e-07
 3.299962e-07
 9.556428e-07
 2.865932e-08
 -1.301316e-06
 -2.319341e-07
 -4.683502e-08
 2.436927e-08
 7.918443e-09
 -1.186777e-07
 -2.636555e-07
 -2.848651e-07
 -1.664794e-07
 0.000000e+00
 0.000000e+00
 -1.118140e-08
 -3.174614e-08
 -8.366191e-08
 -2.459225e-07
 -1.307108e-06
 1.756713e-08
 9.328566e-07
 2.948829e-07
 1.281153e-07
 6.849589e-08
 4.012801e-08
 2.160572e-08
 4.817174e-09
 -1.578306e-08
 -4.801236e-08
 -1.071539e-07
 -2.198001e-07
 -2.475327e-07
 3.943847e-08
 2.875719e-07
 2.346916e-07
 1.385989e-07
 8.304749e-08
 5.222796e-08
 3.385223e-08
 2.216178e-08
 1.525085e-08
 1.353401e-08
 1.857121e-08
 3.127282e-08
 4.992960e-08
 7.024802e-08
 8.822727e-08
 1.030665e-07
 1.178439e-07
 1.396582e-07
 1.816023e-07
 2.601715e-07
 2.935102e-07
 2.870068e-08
 -2.639007e-07
 -2.243287e-07
 -8.871716e-08
 -2.129796e-08
 -3.126119e-08
 -1.277392e-07
 -3.073905e-07
 -4.082883e-07
 -2.117495e-07
 0.000000e+00
 0.000000e+00
 4.920838e-09
 1.035832e-08
 1.812431e-08
 3.732103e-08
 1.224155e-08
 1.747379e-05
 1.612208e-08
 4.475831e-08
 2.851961e-08
 2.290409e-08
 1.861962e-08
 1.353103e-08