<VTKFile type="UnstructuredGrid"  version="0.1"   >
<UnstructuredGrid>  
<Piece  NumberOfPoints="     2601"  NumberOfCells="     5000">  
<Points>  
<DataArray  type="Float64"  NumberOfComponents="3"  format="ascii">  
 0.000000 0.000000 0.000000 
 0.020000 0.000000 0.000000 
 0.040000 0.000000 0.000000 
 0.060000 0.000000 0.000000 
 0.080000 0.000000 0.000000 
 0.100000 0.000000 0.000000 
 0.120000 0.000000 0.000000 
 0.140000 0.000000 0.000000 
 0.160000 0.000000 0.000000 
 0.180000 0.000000 0.000000 
 0.200000 0.000000 0.000000 
 0.220000 0.000000 0.000000 
 0.240000 0.000000 0.000000 
 0.260000 0.000000 0.000000 
 0.280000 0.000000 0.000000 
 0.300000 0.000000 0.000000 
 0.320000 0.000000 0.000000 
 0.340000 0.000000 0.000000 
 0.360000 0.000000 0.000000 
 0.380000 0.000000 0.000000 
 0.400000 0.000000 0.000000 
 0.420000 0.000000 0.000000 
 0.440000 0.000000 0.000000 
 0.460000 0.000000 0.000000 
 0.480000 0.000000 0.000000 
 0.500000 0.000000 0.000000 
 0.520000 0.000000 0.000000 
 0.540000 0.000000 0.000000 
 0.560000 0.000000 0.000000 
 0.580000 0.000000 0.000000 
 0.600000 0.000000 0.000000 
 0.620000 0.000000 0.000000 
 0.640000 0.000000 0.000000 
 0.660000 0.000000 0.000000 
 0.680000 0.000000 0.000000 
 0.700000 0.000000 0.000000 
 0.720000 0.000000 0.000000 
 0.740000 0.000000 0.000000 
 0.760000 0.000000 0.000000 
 0.780000 0.000000 0.000000 
 0.800000 0.000000 0.000000 
 0.820000 0.000000 0.000000 
 0.840000 0.000000 0.000000 
 0.860000 0.000000 0.000000 
 0.880000 0.000000 0.000000 
 0.900000 0.000000 0.000000 
 0.920000 0.000000 0.000000 
 0.940000 0.000000 0.000000 
 0.960000 0.000000 0.000000 
 0.980000 0.000000 0.000000 
 1.000000 0.000000 0.000000 
 0.000000 0.020000 0.000000 
 0.020000 0.020000 0.000000 
 0.040000 0.020000 0.000000 
 0.060000 0.020000 0.000000 
 0.080000 0.020000 0.000000 
 0.100000 0.020000 0.000000 
 0.120000 0.020000 0.000000 
 0.140000 0.020000 0.000000 
 0.160000 0.020000 0.000000 
 0.180000 0.020000 0.000000 
 0.200000 0.020000 0.000000 
 0.220000 0.020000 0.000000 
 0.240000 0.020000 0.000000 
 0.260000 0.020000 0.000000 
 0.280000 0.020000 0.000000 
 0.300000 0.020000 0.000000 
 0.320000 0.020000 0.000000 
 0.340000 0.020000 0.000000 
 0.360000 0.020000 0.000000 
 0.380000 0.020000 0.000000 
 0.400000 0.020000 0.000000 
 0.420000 0.020000 0.000000 
 0.440000 0.020000 0.000000 
 0.460000 0.020000 0.000000 
 0.480000 0.020000 0.000000 
 0.500000 0.020000 0.000000 
 0.520000 0.020000 0.000000 
 0.540000 0.020000 0.000000 
 0.560000 0.020000 0.000000 
 0.580000 0.020000 0.000000 
 0.600000 0.020000 0.000000 
 0.620000 0.020000 0.000000 
 0.640000 0.020000 0.000000 
 0.660000 0.020000 0.000000 
 0.680000 0.020000 0.000000 
 0.700000 0.020000 0.000000 
 0.720000 0.020000 0.000000 
 0.740000 0.020000 0.000000 
 0.760000 0.020000 0.000000 
 0.780000 0.020000 0.000000 
 0.800000 0.020000 0.000000 
 0.820000 0.020000 0.000000 
 0.840000 0.020000 0.000000 
 0.860000 0.020000 0.000000 
 0.880000 0.020000 0.000000 
 0.900000 0.020000 0.000000 
 0.920000 0.020000 0.000000 
 0.940000 0.020000 0.000000 
 0.960000 0.020000 0.000000 
 0.980000 0.020000 0.000000 
 1.000000 0.020000 0.000000 
 0.000000 0.040000 0.000000 
 0.020000 0.040000 0.000000 
 0.040000 0.040000 0.000000 
 0.060000 0.040000 0.000000 
 0.080000 0.040000 0.000000 
 0.100000 0.040000 0.000000 
 0.120000 0.040000 0.000000 
 0.140000 0.040000 0.000000 
 0.160000 0.040000 0.000000 
 0.180000 0.040000 0.000000 
 0.200000 0.040000 0.000000 
 0.220000 0.040000 0.000000 
 0.240000 0.040000 0.000000 
 0.260000 0.040000 0.000000 
 0.280000 0.040000 0.000000 
 0.300000 0.040000 0.000000 
 0.320000 0.040000 0.000000 
 0.340000 0.040000 0.000000 
 0.360000 0.040000 0.000000 
 0.380000 0.040000 0.000000 
 0.400000 0.040000 0.000000 
 0.420000 0.040000 0.000000 
 0.440000 0.040000 0.000000 
 0.460000 0.040000 0.000000 
 0.480000 0.040000 0.000000 
 0.500000 0.040000 0.000000 
 0.520000 0.040000 0.000000 
 0.540000 0.040000 0.000000 
 0.560000 0.040000 0.000000 
 0.580000 0.040000 0.000000 
 0.600000 0.040000 0.000000 
 0.620000 0.040000 0.000000 
 0.640000 0.040000 0.000000 
 0.660000 0.040000 0.000000 
 0.680000 0.040000 0.000000 
 0.700000 0.040000 0.000000 
 0.720000 0.040000 0.000000 
 0.740000 0.040000 0.000000 
 0.760000 0.040000 0.000000 
 0.780000 0.040000 0.000000 
 0.800000 0.040000 0.000000 
 0.820000 0.040000 0.000000 
 0.840000 0.040000 0.000000 
 0.860000 0.040000 0.000000 
 0.880000 0.040000 0.000000 
 0.900000 0.040000 0.000000 
 0.920000 0.040000 0.000000 
 0.940000 0.040000 0.000000 
 0.960000 0.040000 0.000000 
 0.980000 0.040000 0.000000 
 1.000000 0.040000 0.000000 
 0.000000 0.060000 0.000000 
 0.020000 0.060000 0.000000 
 0.040000 0.060000 0.000000 
 0.060000 0.060000 0.000000 
 0.080000 0.060000 0.000000 
 0.100000 0.060000 0.000000 
 0.120000 0.060000 0.000000 
 0.140000 0.060000 0.000000 
 0.160000 0.060000 0.000000 
 0.180000 0.060000 0.000000 
 0.200000 0.060000 0.000000 
 0.220000 0.060000 0.000000 
 0.240000 0.060000 0.000000 
 0.260000 0.060000 0.000000 
 0.280000 0.060000 0.000000 
 0.300000 0.060000 0.000000 
 0.320000 0.060000 0.000000 
 0.340000 0.060000 0.000000 
 0.360000 0.060000 0.000000 
 0.380000 0.060000 0.000000 
 0.400000 0.060000 0.000000 
 0.420000 0.060000 0.000000 
 0.440000 0.060000 0.000000 
 0.460000 0.060000 0.000000 
 0.480000 0.060000 0.000000 
 0.500000 0.060000 0.000000 
 0.520000 0.060000 0.000000 
 0.540000 0.060000 0.000000 
 0.560000 0.060000 0.000000 
 0.580000 0.060000 0.000000 
 0.600000 0.060000 0.000000 
 0.620000 0.060000 0.000000 
 0.640000 0.060000 0.000000 
 0.660000 0.060000 0.000000 
 0.680000 0.060000 0.000000 
 0.700000 0.060000 0.000000 
 0.720000 0.060000 0.000000 
 0.740000 0.060000 0.000000 
 0.760000 0.060000 0.000000 
 0.780000 0.060000 0.000000 
 0.800000 0.060000 0.000000 
 0.820000 0.060000 0.000000 
 0.840000 0.060000 0.000000 
 0.860000 0.060000 0.000000 
 0.880000 0.060000 0.000000 
 0.900000 0.060000 0.000000 
 0.920000 0.060000 0.000000 
 0.940000 0.060000 0.000000 
 0.960000 0.060000 0.000000 
 0.980000 0.060000 0.000000 
 1.000000 0.060000 0.000000 
 0.000000 0.080000 0.000000 
 0.020000 0.080000 0.000000 
 0.040000 0.080000 0.000000 
 0.060000 0.080000 0.000000 
 0.080000 0.080000 0.000000 
 0.100000 0.080000 0.000000 
 0.120000 0.080000 0.000000 
 0.140000 0.080000 0.000000 
 0.160000 0.080000 0.000000 
 0.180000 0.080000 0.000000 
 0.200000 0.080000 0.000000 
 0.220000 0.080000 0.000000 
 0.240000 0.080000 0.000000 
 0.260000 0.080000 0.000000 
 0.280000 0.080000 0.000000 
 0.300000 0.080000 0.000000 
 0.320000 0.080000 0.000000 
 0.340000 0.080000 0.000000 
 0.360000 0.080000 0.000000 
 0.380000 0.080000 0.000000 
 0.400000 0.080000 0.000000 
 0.420000 0.080000 0.000000 
 0.440000 0.080000 0.000000 
 0.460000 0.080000 0.000000 
 0.480000 0.080000 0.000000 
 0.500000 0.080000 0.000000 
 0.520000 0.080000 0.000000 
 0.540000 0.080000 0.000000 
 0.560000 0.080000 0.000000 
 0.580000 0.080000 0.000000 
 0.600000 0.080000 0.000000 
 0.620000 0.080000 0.000000 
 0.640000 0.080000 0.000000 
 0.660000 0.080000 0.000000 
 0.680000 0.080000 0.000000 
 0.700000 0.080000 0.000000 
 0.720000 0.080000 0.000000 
 0.740000 0.080000 0.000000 
 0.760000 0.080000 0.000000 
 0.780000 0.080000 0.000000 
 0.800000 0.080000 0.000000 
 0.820000 0.080000 0.000000 
 0.840000 0.080000 0.000000 
 0.860000 0.080000 0.000000 
 0.880000 0.080000 0.000000 
 0.900000 0.080000 0.000000 
 0.920000 0.080000 0.000000 
 0.940000 0.080000 0.000000 
 0.960000 0.080000 0.000000 
 0.980000 0.080000 0.000000 
 1.000000 0.080000 0.000000 
 0.000000 0.100000 0.000000 
 0.020000 0.100000 0.000000 
 0.040000 0.100000 0.000000 
 0.060000 0.100000 0.000000 
 0.080000 0.100000 0.000000 
 0.100000 0.100000 0.000000 
 0.120000 0.100000 0.000000 
 0.140000 0.100000 0.000000 
 0.160000 0.100000 0.000000 
 0.180000 0.100000 0.000000 
 0.200000 0.100000 0.000000 
 0.220000 0.100000 0.000000 
 0.240000 0.100000 0.000000 
 0.260000 0.100000 0.000000 
 0.280000 0.100000 0.000000 
 0.300000 0.100000 0.000000 
 0.320000 0.100000 0.000000 
 0.340000 0.100000 0.000000 
 0.360000 0.100000 0.000000 
 0.380000 0.100000 0.000000 
 0.400000 0.100000 0.000000 
 0.420000 0.100000 0.000000 
 0.440000 0.100000 0.000000 
 0.460000 0.100000 0.000000 
 0.480000 0.100000 0.000000 
 0.500000 0.100000 0.000000 
 0.520000 0.100000 0.000000 
 0.540000 0.100000 0.000000 
 0.560000 0.100000 0.000000 
 0.580000 0.100000 0.000000 
 0.600000 0.100000 0.000000 
 0.620000 0.100000 0.000000 
 0.640000 0.100000 0.000000 
 0.660000 0.100000 0.000000 
 0.680000 0.100000 0.000000 
 0.700000 0.100000 0.000000 
 0.720000 0.100000 0.000000 
 0.740000 0.100000 0.000000 
 0.760000 0.100000 0.000000 
 0.780000 0.100000 0.000000 
 0.800000 0.100000 0.000000 
 0.820000 0.100000 0.000000 
 0.840000 0.100000 0.000000 
 0.860000 0.100000 0.000000 
 0.880000 0.100000 0.000000 
 0.900000 0.100000 0.000000 
 0.920000 0.100000 0.000000 
 0.940000 0.100000 0.000000 
 0.960000 0.100000 0.000000 
 0.980000 0.100000 0.000000 
 1.000000 0.100000 0.000000 
 0.000000 0.120000 0.000000 
 0.020000 0.120000 0.000000 
 0.040000 0.120000 0.000000 
 0.060000 0.120000 0.000000 
 0.080000 0.120000 0.000000 
 0.100000 0.120000 0.000000 
 0.120000 0.120000 0.000000 
 0.140000 0.120000 0.000000 
 0.160000 0.120000 0.000000 
 0.180000 0.120000 0.000000 
 0.200000 0.120000 0.000000 
 0.220000 0.120000 0.000000 
 0.240000 0.120000 0.000000 
 0.260000 0.120000 0.000000 
 0.280000 0.120000 0.000000 
 0.300000 0.120000 0.000000 
 0.320000 0.120000 0.000000 
 0.340000 0.120000 0.000000 
 0.360000 0.120000 0.000000 
 0.380000 0.120000 0.000000 
 0.400000 0.120000 0.000000 
 0.420000 0.120000 0.000000 
 0.440000 0.120000 0.000000 
 0.460000 0.120000 0.000000 
 0.480000 0.120000 0.000000 
 0.500000 0.120000 0.000000 
 0.520000 0.120000 0.000000 
 0.540000 0.120000 0.000000 
 0.560000 0.120000 0.000000 
 0.580000 0.120000 0.000000 
 0.600000 0.120000 0.000000 
[...]
<PointData  Scalars="U"> 
<DataArray  type="Float64"  Name="U"  format="ascii"> 
 0.000000e+00
 0.000000e+00
 0.000000e+00
 0.000000e+00
 0.000000e+00
 0.000000e+00
 0.000000e+00
 0.000000e+00
 0.000000e+00
 0.000000e+00
 0.000000e+00
 0.000000e+00
 0.000000e+00
 0.000000e+00
 0.000000e+00
 0.000000e+00
 0.000000e+00
 0.000000e+00
 0.000000e+00
 0.000000e+00
 0.000000e+00
 0.000000e+00
 0.000000e+00
 0.000000e+00
 0.000000e+00
 0.000000e+00
 0.000000e+00
 0.000000e+00
 0.000000e+00
 0.000000e+00
 0.000000e+00
 0.000000e+00
 0.000000e+00
 0.000000e+00
 0.000000e+00
 0.000000e+00
 0.000000e+00
 0.000000e+00
 0.000000e+00
 0.000000e+00
 0.000000e+00
 0.000000e+00
 0.000000e+00
 0.000000e+00
 0.000000e+00
 0.000000e+00
 0.000000e+00
 0.000000e+00
 0.000000e+00
 0.000000e+00
 0.000000e+00
 0.000000e+00
 5.494806e-09
 1.054012e-08
 1.479569e-08
 1.810578e-08
 2.052348e-08
 2.228861e-08
 2.377474e-08
 2.540539e-08
 2.746270e-08
 2.941550e-08
 2.715421e-08
 8.400960e-10
 -1.420807e-07
 -1.240263e-06
 -3.623561e-08
 7.650162e-07
 1.018026e-07
 -2.335775e-08
 -1.376624e-08
 2.137366e-08
 4.312325e-08
 5.495977e-08
 7.662917e-08
 1.319935e-07
 2.581241e-07
 2.599212e-07
 1.743503e-05
 -2.843718e-07
 -3.103017e-07
 -1.241529e-06
 -6.028004e-08
 1.777003e-05
 -1.426892e-06
 1.364029e-05
 -4.170437e-06
 -1.458969e-06
 -6.865696e-07
 -3.763808e-07
 -2.607126e-07
 -2.253630e-07
 -1.801061e-07
 -7.718072e-08
 1.277020e-08
 2.861803e-08
 9.401062e-09
 -6.740543e-09
 -1.266901e-08
 -1.141426e-08
 -5.999808e-09
 0.000000e+00
 0.000000e+00
 1.145835e-08
 2.190226e-08
 3.057299e-08
 3.713589e-08
 4.172240e-08
 4.486653e-08
 4.739075e-08
 5.028920e-08
 5.461053e-08
 6.123909e-08
 7.027539e-08
 7.972114e-08
 8.734794e-08
 2.029721e-08
 1.740614e-05
 -1.352455e-07
 -1.604338e-07
 -1.536011e-07
 -4.446232e-08
 6.406204e-08
 9.825941e-08
 1.000315e-07
 1.218003e-07
 1.975375e-07
 3.889060e-07
 1.008328e-06
 3.594574e-09
 -1.390999e-06
 -2.926109e-07
 -4.098799e-08
 1.794164e-05
 -7.118569e-07
 -2.078297e-06
 -2.654076e-06
 -3.776891e-06
 -1.872392e-06
 -9.848859e-07
 -5.780597e-07
 -4.413630e-07
 -4.637657e-07
 -4.475582e-07
 -1.379486e-07
 1.250818e-07
 8.727615e-08
 9.489162e-09
 -2.472153e-08
 -3.234211e-08
 -2.667108e-08
 -1.458346e-08
 0.000000e+00
 0.000000e+00
 1.848162e-08
 3.511211e-08
 4.853888e-08
 5.821088e-08
 6.441165e-08
 6.809256e-08
 7.064351e-08
 7.373257e-08
 7.934613e-08
 9.030859e-08
 1.123788e-07
 1.629705e-07
 3.112350e-07
 9.133870e-07
 -6.008550e-08
 -1.470284e-06
 -5.388075e-07
 -4.099775e-07
 -6.832539e-08
 2.092379e-07
 1.825746e-07
 1.204514e-07
 1.164197e-07
 1.661304e-07
 2.642568e-07
 3.070891e-07
 3.777686e-08
 -2.379541e-07
 -7.043938e-08
 6.625466e-07
 -3.256121e-07
 -2.136533e-06
 -1.745061e-06
 -2.188183e-06
 -2.293494e-06
 -1.569367e-06
 -8.035527e-07
 -5.307055e-07
 -4.770184e-07
 -5.765853e-07
 -1.593999e-06
 -2.354240e-07
 7.093540e-07
 9.981643e-08
 -3.802402e-08
 -6.763734e-08
 -6.421522e-08
 -4.794278e-08
 -2.540714e-08
 0.000000e+00
 0.000000e+00
 2.744520e-08
 5.166753e-08
 7.040447e-08
 8.287005e-08
 8.969185e-08
 9.248976e-08
 9.340041e-08
 9.475947e-08
 9.909649e-08
 1.096422e-07
 1.317644e-07
 1.756990e-07
 2.538854e-07
 2.786198e-07
 -1.323094e-08
 -3.760919e-07
 -5.305676e-07
 -1.492827e-06
 -1.165097e-07
 8.293714e-07
 2.167405e-07
 7.926954e-08
 5.904656e-08
 8.184008e-08
 1.126381e-07
 9.837658e-08
 1.689732e-09
 -9.117974e-08
 -7.905793e-08
 -9.731603e-08
 -5.149561e-07
 -1.139557e-06
 -1.557370e-06
 -1.887529e-06
 -2.863787e-06
 -1.196303e-06
 6.785033e-08
 -3.558663e-07
 -3.977226e-07
 -3.571699e-07
 -3.439152e-07
 1.715950e-05
 -2.563669e-07
 -1.875084e-07
 -1.662661e-07
 -1.371352e-07
 -1.072438e-07
 -7.511222e-08
 -3.906365e-08
 0.000000e+00
 0.000000e+00
 3.980565e-08
 7.397257e-08
 9.878717e-08
 1.133393e-07
 1.190774e-07
 1.187989e-07
 1.157280e-07
 1.129013e-07
 1.129486e-07
 1.182021e-07
 1.306832e-07
 1.501948e-07
 1.644225e-07
 1.312499e-07
 1.565829e-08
 -1.047076e-07
 -1.301094e-07
 -1.417060e-07
 1.734241e-05
 -9.695077e-08
 -5.264182e-08
 -5.222357e-08
 -3.702109e-08
 -1.545974e-08
 3.725133e-09
 2.207180e-09
 -3.272354e-08
 -8.654823e-08
 -1.507268e-07
 -2.805550e-07
 -5.514524e-07
 -9.221650e-07
 -1.311582e-06
 -1.565609e-06
 -1.367314e-06
 1.669264e-05
 -4.376950e-07
 -3.952228e-07
 -3.758582e-07
 -1.882869e-07
 4.961836e-07
 -3.627210e-07
 -1.627890e-06
 -5.094838e-07
 -2.977399e-07
 -2.063881e-07
 -1.525829e-07
 -1.067266e-07
 -5.613152e-08
 0.000000e+00
 0.000000e+00
 5.815847e-08
 1.061406e-07
 1.378395e-07
 1.528422e-07
 1.545421e-07
 1.478574e-07
 1.377329e-07
 1.281190e-07
 1.215770e-07
 1.193430e-07
 1.211357e-07
 1.237920e-07
 1.187237e-07
 9.412480e-08
 5.431767e-08
 4.599724e-08
 1.735120e-07
 8.012765e-07
 -1.102406e-07
 -1.427896e-06
 -3.606640e-07
 -1.945228e-07
 -1.399295e-07
 -1.127433e-07
 -8.415313e-08
 -5.390017e-08
 -4.794308e-08
 -8.538994e-08
 -1.655732e-07
 -2.937131e-07
 -4.786803e-07
 -7.130353e-07
 -1.029790e-06
 -2.191772e-06
 -1.328445e-06
 2.347190e-08
 -9.448491e-07
 -5.735319e-07
 -4.912626e-07
 -3.406157e-07
 -2.229961e-07
 -3.996955e-07
 -6.101874e-07
 -5.083975e-07
 -3.373774e-07
 -2.436942e-07
 -1.922662e-07
 -1.452168e-07
 -7.978507e-08
 0.000000e+00
 0.000000e+00
 8.743494e-08
 1.556722e-07
 1.942130e-07
 2.058738e-07
 1.983882e-07
 1.801695e-07
 1.589803e-07
 1.400499e-07
 1.256779e-07
 1.160336e-07
 1.097558e-07
 1.039884e-07
 9.480716e-08
 8.045501e-08
 6.862306e-08
 8.174245e-08
 1.463151e-07
 1.809926e-07
 -7.665576e-08
 -3.703718e-07
 -3.514698e-07
 -2.542773e-07
 -2.209462e-07
 -2.156965e-07
 -1.796688e-07
 -8.376494e-08
 -1.472034e-08
 -4.381956e-08
 -1.340918e-07
 -2.448542e-07
 -3.593395e-07
 -4.558717e-07
 -4.923031e-07
 -4.840542e-07
 1.696734e-05
 1.672788e-05
 -9.484573e-07
 -8.440942e-07
 -6.735793e-07
 -5.433076e-07
 -4.756482e-07
 -4.865037e-07
 -4.902557e-07
 -4.067504e-07
 -2.968679e-07
 -2.381279e-07
 -2.300556e-07
 -2.078827e-07
 -1.189247e-07
 0.000000e+00
 0.000000e+00
 1.373749e-07
 2.377362e-07
 2.779723e-07
 2.781092e-07
 2.529124e-07
 2.149637e-07
 1.774444e-07
 1.470793e-07
 1.248170e-07
 1.091067e-07
 9.760973e-08
 8.780512e-08
 7.765839e-08
 6.711937e-08
 5.970282e-08
 6.034810e-08
 6.218258e-08
 2.496105e-08
 -8.918840e-08
 -2.095570e-07
 -2.516938e-07
 -2.493928e-07
 -2.679314e-07
 -3.509266e-07
 -3.647758e-07
 -8.224430e-08
 1.437076e-07
 5.440738e-08
 -8.740355e-08
 -1.905389e-07
 -2.546947e-07
 -2.530981e-07
 -8.316578e-08
 6.900378e-07
 3.670913e-07
 -1.971414e-06
 -2.319973e-06
 -1.090194e-06
 -8.160837e-07
 -6.882516e-07
 -6.234294e-07
 -5.794539e-07
 -4.932483e-07
 -3.308080e-07
 -1.888783e-07
 -1.699231e-07
 -2.818733e-07
 -3.616772e-07
 -1.802320e-07
 0.000000e+00
 0.000000e+00
 2.248689e-07
 3.916648e-07
 3.974699e-07
 3.761212e-07
 3.205948e-07
 2.478600e-07
 1.877655e-07
 1.456534e-07
 1.173036e-07
 9.793286e-08
 8.382313e-08
 7.227676e-08
 6.158316e-08
 5.118840e-08
 4.135556e-08
 3.088611e-08
 1.261251e-08
 -2.691661e-08
 -9.133172e-08
 -1.571386e-07
 -1.981116e-07
 -2.179629e-07
 -2.498666e-07
 -3.861630e-07
 -1.429784e-06
 -1.060631e-07
 7.895388e-07
 1.198738e-07
 -8.201242e-08
 -1.703281e-07
 -2.062112e-07
 -1.860891e-07
 -8.482316e-08
 2.344591e-08
 -2.160651e-07
 -8.050573e-07
 -1.110859e-06
 -9.944975e-07
 -8.390534e-07
 -7.754627e-07
 -7.436178e-07
 -7.154285e-07
 -6.051157e-07
 -2.337496e-07
 6.658584e-08
 2.511533e-08
 -2.030673e-07
 -1.357677e-06
 -2.375015e-07
 0.000000e+00
 0.000000e+00
 1.153233e-07
 8.488577e-07
 4.668945e-07
 5.340847e-07
 4.036102e-07
 2.627236e-07
 1.790435e-07
 1.305381e-07
 1.010179e-07
 8.166273e-08
 6.762812e-08
 5.609815e-08
 4.540068e-08
 3.454367e-08
 2.259910e-08
 7.594249e-09
 -1.440389e-08
 -4.764594e-08
 -9.130608e-08
 -1.361936e-07
 -1.698086e-07
 -1.806736e-07
 -1.576465e-07
 -9.752313e-08
 -8.717068e-08
 1.737837e-05
 -1.032037e-07
 -1.103473e-07
 -1.619695e-07
 -1.944603e-07
 -2.096025e-07
 -2.032701e-07
 -1.847086e-07
 -2.080624e-07
 -3.546474e-07
 -5.885274e-07
 -7.461573e-07
 -7.709655e-07
 -7.634495e-07
 -8.336834e-07
 -8.878672e-07
 -7.622164e-07
 -1.542411e-06
 -1.571545e-07
 8.221811e-07
 2.909283e-07
 2.127820e-07
 1.192723e-07
 1.749434e-05
 0.000000e+00
 0.000000e+00
 1.721400e-05
 -1.236092e-06
 1.896576e-07
 1.092582e-06
 4.171391e-07
 2.174716e-07
 1.370302e-07
 9.765568e-08
 7.517956e-08
 6.038125e-08
 4.910764e-08
 3.920505e-08
 2.940651e-08
 1.881753e-08
 6.505348e-09
 -8.905364e-09
 -2.929227e-08
 -5.621615e-08
 -8.953637e-08
 -1.270197e-07
 -1.638008e-07
 -1.789317e-07
 -1.042949e-07
 1.595614e-07
 8.858244e-07
 -2.495711e-08
 -1.392635e-06
 -3.792926e-07
 -2.568024e-07
 -2.351537e-07
 -2.359650e-07
 -2.408524e-07
 -2.533918e-07
 -2.924875e-07
 -3.733766e-07
 -4.747232e-07
 -5.479063e-07
 -5.758373e-07
 -6.017256e-07
 -7.414807e-07
 -1.816230e-06
 -5.686466e-07
 2.780470e-07
 1.732204e-05
 -2.150993e-08
 2.814848e-07
 6.103050e-07
 1.203631e-06
 3.367561e-07
 0.000000e+00
 0.000000e+00
 -3.935835e-07
 -1.344853e-06
 1.745889e-05
 1.259717e-07
 1.215033e-07
 7.933250e-08
 6.037435e-08
 4.982933e-08
 4.236914e-08
 3.586500e-08
 2.935012e-08
 2.226865e-08
 1.419837e-08
 4.733079e-09
 -6.601927e-09
 -2.040140e-08
 -3.732429e-08
 -5.799353e-08
 -8.341631e-08
 -1.170614e-07
 -1.694938e-07
 -2.610726e-07
 -2.423163e-07
 1.307034e-07
 4.195230e-07
 1.037791e-07
 -2.963032e-07
 -3.428131e-07
 -2.806504e-07
 -2.601622e-07
 -2.612928e-07
 -2.738008e-07
 -2.957333e-07
 -3.275753e-07
 -3.650366e-07
 -3.957878e-07
 -4.062309e-07
 -3.910499e-07
 -3.543189e-07
 -2.984680e-07
 -2.902170e-07
 1.718928e-05
 -7.079484e-07
 -3.877638e-07
 -1.810866e-06
 3.110448e-08
 1.095620e-06
 5.907245e-07
 3.083140e-07
 0.000000e+00
 0.000000e+00
 -1.203579e-06
 5.354982e-07
 6.106905e-07
 -1.206755e-06
 -2.295926e-07
 -7.796802e-08
 -2.345170e-08
 -6.337107e-10
 8.766829e-09
 1.141658e-08
 1.017772e-08
 6.323375e-09
 3.734262e-10
 -7.505104e-09
 -1.725920e-08
 -2.875692e-08
 -4.162784e-08
 -5.534715e-08
 -7.019857e-08
 -9.058395e-08
 -1.356365e-07
 -2.830566e-07
 -1.322526e-06
 1.819551e-08
 9.018773e-07
 1.489223e-07
 -1.415569e-07
 -2.444982e-07
 -2.622904e-07
 -2.657909e-07
 -2.766350e-07
 -2.978080e-07
 -3.272783e-07
 -3.553334e-07
 -3.630966e-07
 -3.388421e-07
 -2.920450e-07
 -2.280590e-07
 -1.215373e-07
 1.101226e-07
 8.403756e-07
 6.917838e-08
 -1.192778e-06
 1.713800e-05
 -4.172501e-07
 1.722284e-05
 -3.912037e-08
 9.905123e-08
 8.008569e-08
 0.000000e+00
 0.000000e+00
 1.501294e-08
 1.747889e-05
 -2.016176e-07
 -3.902538e-07
 -3.144806e-07
 -1.627659e-07
 -8.084662e-08
 -3.913396e-08
 -1.861308e-08
 -9.379497e-09
 -6.494716e-09
 -7.581114e-09
 -1.154102e-08
 -1.785461e-08
 -2.612831e-08
 -3.569206e-08
 -4.516187e-08
 -5.210895e-08
 -5.332492e-08
 -4.611826e-08
 -2.938518e-08
 1.601102e-09
 -1.606557e-08
 1.743788e-05
 -5.562708e-08
 -9.220206e-08
 -1.767368e-07
 -2.254375e-07
 -2.478814e-07
 -2.621115e-07
 -2.811971e-07
 -3.122697e-07
 -3.580012e-07
 -4.044169e-07
 -3.984291e-07
 -3.035864e-07
 -1.890815e-07
 -1.016234e-07
 1.347486e-08
 1.955171e-07
 3.699642e-07
 3.516591e-07
 7.576315e-07
 -3.615602e-08
 -6.764340e-07
 -4.463488e-07
 -1.498316e-06
 -3.013516e-07
 -7.928004e-08
 0.000000e+00
 0.000000e+00
 7.801783e-07
 -1.238662e-07
 -1.509579e-06
 -4.962245e-07
 -3.002829e-07
 -1.770821e-07
 -1.004819e-07
 -5.791474e-08
 -3.547986e-08
 -2.422389e-08
 -1.939422e-08
 -1.870197e-08
 -2.112189e-08
 -2.619986e-08
 -3.358736e-08
 -4.253138e-08
 -5.105286e-08
 -5.467500e-08
 -4.526403e-08
 -1.113299e-08
 6.644193e-08
 2.519168e-07
 8.967718e-07
 -2.993196e-08
 -1.384844e-06
 -3.672318e-07
 -2.501574e-07
 -2.345136e-07
 -2.402260e-07
 -2.525631e-07
 -2.733497e-07
 -3.103159e-07
 -3.788421e-07
 -5.053389e-07
 -5.507105e-07
 -2.818266e-07
 -3.315976e-08
 -1.124296e-08
 7.390769e-08
 2.136200e-07
 2.888695e-07
 3.006770e-07
 2.735772e-07
 5.956680e-08
 -1.683787e-07
 -3.432196e-07
 -4.550584e-07
 -3.108079e-07
 -1.221952e-07
 0.000000e+00
 0.000000e+00
 9.452386e-08
 -1.513414e-07
 -4.445068e-07
 -3.973429e-07
 -2.407187e-07
 -1.412720e-07
 -8.638583e-08
 -5.754809e-08
 -4.187411e-08
 -3.303231e-08
 -2.835234e-08
 -2.679975e-08
 -2.806351e-08
 -3.217696e-08
 -3.930101e-08
 -4.938127e-08
 -6.118225e-08
 -6.967297e-08
 -6.143581e-08
 -1.510551e-08
 8.166970e-08
 2.161878e-07
 2.781070e-07
 1.032987e-08
 -3.122636e-07
 -3.260007e-07
 -2.538588e-07
 -2.301441e-07
 -2.279341e-07
 -2.352589e-07
 -2.504641e-07
 -2.791925e-07
 -3.420397e-07
 -5.181807e-07
 -1.599707e-06
 -3.134870e-07
 5.211262e-07
 -1.003988e-07
 7.471849e-08
 3.223772e-07
 2.915568e-07
 2.045655e-07
 1.197016e-07
 1.168382e-09
 -1.237397e-07
 -2.175987e-07
 -2.496976e-07
 -1.943717e-07
 -9.695712e-08
 0.000000e+00
 0.000000e+00
 -7.200629e-08
 -2.129788e-07
 -3.114437e-07
 -2.449061e-07
 -1.201281e-07
 -6.005820e-08
 -4.756753e-08
 -4.518356e-08
 -4.199970e-08
 -3.792021e-08
 -3.429027e-08
 -3.213449e-08
 -3.217933e-08
 -3.512212e-08
 -4.190472e-08
 -5.396556e-08
 -7.315970e-08
 -9.940581e-08
 -1.171873e-07
 -7.458305e-08
 5.582782e-08
 1.737851e-07
 1.627997e-07
 2.201472e-08
 -1.331684e-07
 -2.020558e-07
 -2.102045e-07
 -2.073487e-07
 -2.076731e-07
 -2.110478e-07
 -2.158931e-07
 -2.205790e-07
 -2.221693e-07
 -2.110224e-07
 -2.461292e-07
 1.718475e-05
 -4.037925e-07
 -1.399141e-06
 -5.343933e-08
 8.880138e-07
 2.665694e-07
 9.929869e-08
 1.735798e-08
 -5.218741e-08
 -1.125538e-07
 -1.495024e-07
 -1.513455e-07
 -1.169248e-07
 -6.128552e-08
 0.000000e+00
 0.000000e+00
 -1.261562e-07
 -3.103397e-07
 -4.029113e-07
 -1.486392e-07
 1.002313e-07
 6.649855e-08
 -4.414458e-09
 -3.486091e-08
 -4.309184e-08
 -4.227375e-08
 -3.870180e-08
 -3.526427e-08
 -3.343769e-08
 -3.431436e-08
 -3.933874e-08
 -5.131204e-08
 -7.645837e-08
 -1.287798e-07
 -2.338405e-07
 -2.531274e-07
 4.031529e-08
 2.838534e-07
 2.009344e-07
 4.625730e-08
 -7.135694e-08
 -1.393092e-07
 -1.689052e-07
 -1.799611e-07
 -1.843444e-07
 -1.853983e-07
 -1.813201e-07
 -1.643685e-07
 -1.112632e-07
 5.797320e-08
 7.132529e-07
 -1.646651e-07
 -1.427314e-06
 -3.483272e-07
 1.730581e-05
 -8.669767e-08
 -4.037866e-08
 -6.281935e-08
 -8.760013e-08
 -1.126058e-07
 -1.255768e-07
 -1.180156e-07
 -9.297969e-08
 -6.050613e-08
 -2.882623e-08
 0.000000e+00
 0.000000e+00
 -1.132827e-07
 -3.276313e-07
 -1.431351e-06
 -1.322806e-07
 7.762726e-07
 1.458555e-07
 -5.062779e-09
 -4.493227e-08
 -5.209955e-08
 -4.886524e-08
 -4.276910e-08
 -3.672643e-08
 -3.204508e-08
 -2.955868e-08
 -3.032915e-08
 -3.668736e-08
 -5.504705e-08
 -1.059143e-07
 -2.677257e-07
 -1.329627e-06
 -9.189450e-09
 8.939394e-07
 2.317343e-07
 3.036928e-08
 -6.406510e-08
 -1.163253e-07
 -1.441719e-07
 -1.577889e-07
 -1.636236e-07
 -1.640778e-07
 -1.576161e-07
 -1.375936e-07
 -8.866810e-08
 1.286276e-08
 1.011103e-07
 -4.802655e-08
 -1.018181e-07
 6.238761e-07
 -1.537403e-07
 -1.427783e-06
 -3.626493e-07
 -2.180488e-07
 -1.907494e-07
 -1.857986e-07
 -1.615193e-07
 -1.052688e-07
 -4.158202e-08
 -2.100902e-09
 7.416944e-09
 0.000000e+00
 0.000000e+00
 -2.541948e-08
 -3.848641e-08
 -9.096605e-08
 1.735227e-05
 -1.128235e-07
 -8.193659e-08
 -8.896967e-08
 -8.111320e-08
 -6.962379e-08
 -5.769057e-08
 -4.655540e-08
 -3.675791e-08
 -2.848828e-08
 -2.172062e-08
 -1.627211e-08
 -1.180833e-08
 -7.691638e-09
 -2.034145e-09
 1.405100e-08
 -1.591822e-08
 1.743745e-05
 -3.358281e-08
 -2.450793e-08
 -6.478327e-08
 -9.425672e-08
 -1.171880e-07
 -1.330513e-07
 -1.426958e-07
 -1.476679e-07
 -1.489007e-07
 -1.460684e-07
 -1.374150e-07
 -1.209501e-07
 -1.017752e-07
 -9.834503e-08
 -8.830273e-08
 3.324419e-08
 1.711490e-07
 -3.660196e-08
 -3.387924e-07
 -3.502941e-07
 -2.853264e-07
 -2.765259e-07
 -2.823428e-07
 -2.374002e-07
 -1.012445e-07
 4.002696e-08
 8.941530e-08
 6.078456e-08
 0.000000e+00
 0.000000e+00
 5.465167e-08
 2.077115e-07
 8.321420e-07
 -9.206682e-08
 -1.419205e-06
 -3.542317e-07
 -1.833924e-07
 -1.200652e-07
 -8.734564e-08
 -6.561726e-08
 -4.895041e-08
 -3.522717e-08
 -2.340446e-08
 -1.254103e-08
 -1.193371e-09
 1.355065e-08
 3.880483e-08
 9.555707e-08
 2.592767e-07
 8.932764e-07
 -2.800241e-08
 -1.361783e-06
 -3.132658e-07
 -1.664269e-07
 -1.307797e-07
 -1.254869e-07
 -1.282634e-07
 -1.321480e-07
 -1.352330e-07
 -1.375306e-07
 -1.401618e-07
 -1.457922e-07
 -1.602361e-07
 -1.961010e-07
 -2.775776e-07
 -2.694549e-07
 4.255969e-08
 2.641374e-07
 9.735535e-08
 -1.294900e-07
 -2.468061e-07
 -2.962629e-07
 -3.417962e-07
 -4.295486e-07
 -4.356967e-07
 -1.041752e-07
 2.411765e-07
 2.610230e-07
 1.423600e-07
 0.000000e+00
 0.000000e+00
 6.210051e-08
 1.539496e-07
 1.994883e-07
 -5.489061e-08
 -3.449490e-07
 -3.165887e-07
 -2.000682e-07
 -1.348696e-07
 -9.575887e-08
 -6.897910e-08
 -4.854416e-08
 -3.180473e-08
 -1.728549e-08
 -3.638112e-09
 1.105155e-08
 3.014342e-08
 6.013910e-08
 1.135749e-07
 2.061540e-07
 2.537570e-07
 -1.914863e-09
 -2.990914e-07
 -2.842539e-07
 -1.866383e-07
 -1.436515e-07
 -1.276963e-07
 -1.230692e-07
 -1.226658e-07
 -1.237390e-07
 -1.260554e-07
 -1.317342e-07
 -1.463627e-07
 -1.803893e-07
 -2.462381e-07
 -3.790286e-07
 -1.343517e-06
 5.571706e-08
 9.439562e-07
 2.103085e-07
 -6.262180e-08
 -2.097517e-07
 -3.061876e-07
 -3.682212e-07
 -4.798337e-07
 -1.550148e-06
 -2.320936e-07
 9.421162e-07
 5.114897e-07
 2.397662e-07
 0.000000e+00
 0.000000e+00
 3.486556e-08
 6.043129e-08
 3.840695e-08
 -6.474263e-08
 -1.734088e-07
 -1.982317e-07
 -1.658460e-07
 -1.260483e-07
 -9.304553e-08
 -6.648729e-08
 -4.461005e-08
 -2.617437e-08
 -1.020496e-08
 4.441854e-09
 1.937302e-08
 3.683966e-08
 5.956003e-08
 8.850195e-08
 1.124480e-07
 8.951752e-08
 -1.671457e-08
 -1.324356e-07
 -1.689630e-07
 -1.525985e-07
 -1.320332e-07
 -1.199274e-07
 -1.143093e-07
 -1.120823e-07
 -1.113572e-07
 -1.117737e-07
 -1.152461e-07
 -1.282840e-07
 -1.668105e-07
 -2.590188e-07
 -2.619865e-07
 -5.386212e-09
 1.768594e-05
 1.426383e-07
 2.873431e-08
 -1.008122e-07
 -2.127382e-07
 -3.550543e-07
 -4.052503e-07
 -1.512862e-07
 -8.378278e-08
 1.627435e-05
 5.451548e-08
 9.441053e-07
 2.436993e-07
 0.000000e+00
 0.000000e+00
 1.070141e-08
 1.042875e-08
 -1.426789e-08
 -6.498492e-08
 -1.156144e-07
 -1.375606e-07
 -1.303870e-07
 -1.089591e-07
 -8.387157e-08
 -5.943869e-08
 -3.727764e-08
 -1.804469e-08
 -1.722338e-09
 1.234976e-08
 2.527449e-08
 3.817519e-08
 5.132136e-08
 6.209892e-08
 6.169694e-08
 3.604874e-08
 -1.774254e-08
 -7.470372e-08
 -1.069094e-07
 -1.140370e-07
 -1.104703e-07
 -1.057023e-07
 -1.023925e-07
 -1.002365e-07
 -9.816989e-08
 -9.512583e-08
 -9.069309e-08
 -8.743714e-08
 -9.943878e-08
 -1.876489e-07
 -1.070784e-06
 8.945429e-07
 8.864690e-07
 -1.094008e-06
 -2.248709e-07
 -1.550288e-07
 -1.853112e-07
 -3.272083e-07
 -1.332265e-06
 1.688644e-07
 1.758252e-06
 2.093917e-07
 1.621137e-05
 -2.195674e-07
 -3.835580e-08
 0.000000e+00
 0.000000e+00
 -3.515923e-09
 -1.351666e-08
 -3.457425e-08
 -6.463590e-08
 -9.307884e-08
 -1.085459e-07
 -1.077619e-07
 -9.440491e-08
 -7.368042e-08
 -4.999606e-08
 -2.690762e-08
 -6.890833e-09
 9.089460e-09
 2.141830e-08
 3.108857e-08
 3.884376e-08
 4.436511e-08
 4.544484e-08
 3.774487e-08
 1.711208e-08
 -1.483945e-08
 -4.820883e-08
 -7.237188e-08
 -8.464323e-08
 -8.888518e-08
 -8.960556e-08
 -8.923477e-08
 -8.830425e-08
 -8.603216e-08
 -8.023121e-08
 -6.640962e-08
 -3.669828e-08
 2.018019e-08
 1.220909e-07
 2.175736e-07
 1.774338e-05
 3.459914e-08
 -2.355390e-07
 -2.375509e-07
 -1.389583e-07
 -7.921133e-08
 -1.465251e-08
 3.550056e-08
 1.765473e-05
 4.464228e-07
 9.236627e-07
 -2.331835e-07
 -1.492774e-06
 -2.870771e-07
 0.000000e+00
 0.000000e+00
 -1.105924e-08
 -2.524926e-08
 -4.406466e-08
 -6.573911e-08
 -8.526258e-08
 -9.705667e-08
 -9.782237e-08
 -8.702080e-08
 -6.632839e-08
 -3.978622e-08
 -1.319187e-08
 8.542911e-09
 2.365494e-08
 3.310096e-08
 3.864384e-08
 4.142393e-08
 4.142427e-08
 3.746721e-08
 2.774984e-08
 1.126776e-08
 -1.035033e-08
 -3.264333e-08
 -5.094080e-08
 -6.324443e-08
 -7.039038e-08
 -7.428225e-08
 -7.644013e-08
 -7.750445e-08
 -7.705105e-08
 -7.275092e-08
 -5.743597e-08
 -1.264437e-08
 9.884612e-08
 3.521342e-07
 1.070905e-06
 1.633901e-07
 -1.259319e-06