<VTKFile type="UnstructuredGrid"  version="0.1"   >
<UnstructuredGrid>  
<Piece  NumberOfPoints="     2601"  NumberOfCells="     5000">  
<Points>  
<DataArray  type="Float64"  NumberOfComponents="3"  format="ascii">  
 0.000000 0.000000 0.000000 
 0.020000 0.000000 0.000000 
 0.040000 0.000000 0.000000 
 0.060000 0.000000 0.000000 
 0.080000 0.000000 0.000000 
 0.100000 0.000000 0.000000 
 0.120000 0.000000 0.000000 
 0.140000 0.000000 0.000000 
 0.160000 0.000000 0.000000 
 0.180000 0.000000 0.000000 
 0.200000 0.000000 0.000000 
 0.220000 0.000000 0.000000 
 0.240000 0.000000 0.000000 
 0.260000 0.000000 0.000000 
 0.280000 0.000000 0.000000 
 0.300000 0.000000 0.000000 
 0.320000 0.000000 0.000000 
 0.340000 0.000000 0.000000 
 0.360000 0.000000 0.000000 
 0.380000 0.000000 0.000000 
 0.400000 0.000000 0.000000 
 0.420000 0.000000 0.000000 
 0.440000 0.000000 0.000000 
 0.460000 0.000000 0.000000 
 0.480000 0.000000 0.000000 
 0.500000 0.000000 0.000000 
 0.520000 0.000000 0.000000 
 0.540000 0.000000 0.000000 
 0.560000 0.000000 0.000000 
 0.580000 0.000000 0.000000 
 0.600000 0.000000 0.000000 
 0.620000 0.000000 0.000000 
 0.640000 0.000000 0.000000 
 0.660000 0.000000 0.000000 
 0.680000 0.000000 0.000000 
 0.700000 0.000000 0.000000 
 0.720000 0.000000 0.000000 
 0.740000 0.000000 0.000000 
 0.760000 0.000000 0.000000 
 0.780000 0.000000 0.000000 
 0.800000 0.000000 0.000000 
 0.820000 0.000000 0.000000 
 0.840000 0.000000 0.000000 
 0.860000 0.000000 0.000000 
 0.880000 0.000000 0.000000 
 0.900000 0.000000 0.000000 
 0.920000 0.000000 0.000000 
 0.940000 0.000000 0.000000 
 0.960000 0.000000 0.000000 
 0.980000 0.000000 0.000000 
 1.000000 0.000000 0.000000 
 0.000000 0.020000 0.000000 
 0.020000 0.020000 0.000000 
 0.040000 0.020000 0.000000 
 0.060000 0.020000 0.000000 
 0.080000 0.020000 0.000000 
 0.100000 0.020000 0.000000 
 0.120000 0.020000 0.000000 
 0.140000 0.020000 0.000000 
 0.160000 0.020000 0.000000 
 0.180000 0.020000 0.000000 
 0.200000 0.020000 0.000000 
 0.220000 0.020000 0.000000 
 0.240000 0.020000 0.000000 
 0.260000 0.020000 0.000000 
 0.280000 0.020000 0.000000 
 0.300000 0.020000 0.000000 
 0.320000 0.020000 0.000000 
 0.340000 0.020000 0.000000 
 0.360000 0.020000 0.000000 
 0.380000 0.020000 0.000000 
 0.400000 0.020000 0.000000 
 0.420000 0.020000 0.000000 
 0.440000 0.020000 0.000000 
 0.460000 0.020000 0.000000 
 0.480000 0.020000 0.000000 
 0.500000 0.020000 0.000000 
 0.520000 0.020000 0.000000 
 0.540000 0.020000 0.000000 
 0.560000 0.020000 0.000000 
 0.580000 0.020000 0.000000 
 0.600000 0.020000 0.000000 
 0.620000 0.020000 0.000000 
 0.640000 0.020000 0.000000 
 0.660000 0.020000 0.000000 
 0.680000 0.020000 0.000000 
 0.700000 0.020000 0.000000 
 0.720000 0.020000 0.000000 
 0.740000 0.020000 0.000000 
 0.760000 0.020000 0.000000 
 0.780000 0.020000 0.000000 
 0.800000 0.020000 0.000000 
 0.820000 0.020000 0.000000 
 0.840000 0.020000 0.000000 
 0.860000 0.020000 0.000000 
 0.880000 0.020000 0.000000 
 0.900000 0.020000 0.000000 
 0.920000 0.020000 0.000000 
 0.940000 0.020000 0.000000 
 0.960000 0.020000 0.000000 
 0.980000 0.020000 0.000000 
 1.000000 0.020000 0.000000 
 0.000000 0.040000 0.000000 
 0.020000 0.040000 0.000000 
 0.040000 0.040000 0.000000 
 0.060000 0.040000 0.000000 
 0.080000 0.040000 0.000000 
 0.100000 0.040000 0.000000 
 0.120000 0.040000 0.000000 
 0.140000 0.040000 0.000000 
 0.160000 0.040000 0.000000 
 0.180000 0.040000 0.000000 
 0.200000 0.040000 0.000000 
 0.220000 0.040000 0.000000 
 0.240000 0.040000 0.000000 
 0.260000 0.040000 0.000000 
 0.280000 0.040000 0.000000 
 0.300000 0.040000 0.000000 
 0.320000 0.040000 0.000000 
 0.340000 0.040000 0.000000 
 0.360000 0.040000 0.000000 
 0.380000 0.040000 0.000000 
 0.400000 0.040000 0.000000 
 0.420000 0.040000 0.000000 
 0.440000 0.040000 0.000000 
 0.460000 0.040000 0.000000 
 0.480000 0.040000 0.000000 
 0.500000 0.040000 0.000000 
 0.520000 0.040000 0.000000 
 0.540000 0.040000 0.000000 
 0.560000 0.040000 0.000000 
 0.580000 0.040000 0.000000 
 0.600000 0.040000 0.000000 
 0.620000 0.040000 0.000000 
 0.640000 0.040000 0.000000 
 0.660000 0.040000 0.000000 
 0.680000 0.040000 0.000000 
 0.700000 0.040000 0.000000 
 0.720000 0.040000 0.000000 
 0.740000 0.040000 0.000000 
 0.760000 0.040000 0.000000 
 0.780000 0.040000 0.000000 
 0.800000 0.040000 0.000000 
 0.820000 0.040000 0.000000 
 0.840000 0.040000 0.000000 
 0.860000 0.040000 0.000000 
 0.880000 0.040000 0.000000 
 0.900000 0.040000 0.000000 
 0.920000 0.040000 0.000000 
 0.940000 0.040000 0.000000 
 0.960000 0.040000 0.000000 
 0.980000 0.040000 0.000000 
 1.000000 0.040000 0.000000 
 0.000000 0.060000 0.000000 
 0.020000 0.060000 0.000000 
 0.040000 0.060000 0.000000 
 0.060000 0.060000 0.000000 
 0.080000 0.060000 0.000000 
 0.100000 0.060000 0.000000 
 0.120000 0.060000 0.000000 
 0.140000 0.060000 0.000000 
 0.160000 0.060000 0.000000 
 0.180000 0.060000 0.000000 
 0.200000 0.060000 0.000000 
 0.220000 0.060000 0.000000 
 0.240000 0.060000 0.000000 
 0.260000 0.060000 0.000000 
 0.280000 0.060000 0.000000 
 0.300000 0.060000 0.000000 
 0.320000 0.060000 0.000000 
 0.340000 0.060000 0.000000 
 0.360000 0.060000 0.000000 
 0.380000 0.060000 0.000000 
 0.400000 0.060000 0.000000 
 0.420000 0.060000 0.000000 
 0.440000 0.060000 0.000000 
 0.460000 0.060000 0.000000 
 0.480000 0.060000 0.000000 
 0.500000 0.060000 0.000000 
 0.520000 0.060000 0.000000 
 0.540000 0.060000 0.000000 
 0.560000 0.060000 0.000000 
 0.580000 0.060000 0.000000 
 0.600000 0.060000 0.000000 
 0.620000 0.060000 0.000000 
 0.640000 0.060000 0.000000 
 0.660000 0.060000 0.000000 
 0.680000 0.060000 0.000000 
 0.700000 0.060000 0.000000 
 0.720000 0.060000 0.000000 
 0.740000 0.060000 0.000000 
 0.760000 0.060000 0.000000 
 0.780000 0.060000 0.000000 
 0.800000 0.060000 0.000000 
 0.820000 0.060000 0.000000 
 0.840000 0.060000 0.000000 
 0.860000 0.060000 0.000000 
 0.880000 0.060000 0.000000 
 0.900000 0.060000 0.000000 
 0.920000 0.060000 0.000000 
 0.940000 0.060000 0.000000 
 0.960000 0.060000 0.000000 
 0.980000 0.060000 0.000000 
 1.000000 0.060000 0.000000 
 0.000000 0.080000 0.000000 
 0.020000 0.080000 0.000000 
 0.040000 0.080000 0.000000 
 0.060000 0.080000 0.000000 
 0.080000 0.080000 0.000000 
 0.100000 0.080000 0.000000 
 0.120000 0.080000 0.000000 
 0.140000 0.080000 0.000000 
 0.160000 0.080000 0.000000 
 0.180000 0.080000 0.000000 
 0.200000 0.080000 0.000000 
 0.220000 0.080000 0.000000 
 0.240000 0.080000 0.000000 
 0.260000 0.080000 0.000000 
 0.280000 0.080000 0.000000 
 0.300000 0.080000 0.000000 
 0.320000 0.080000 0.000000 
 0.340000 0.080000 0.000000 
 0.360000 0.080000 0.000000 
 0.380000 0.080000 0.000000 
 0.400000 0.080000 0.000000 
 0.420000 0.080000 0.000000 
 0.440000 0.080000 0.000000 
 0.460000 0.080000 0.000000 
 0.480000 0.080000 0.000000 
 0.500000 0.080000 0.000000 
 0.520000 0.080000 0.000000 
 0.540000 0.080000 0.000000 
 0.560000 0.080000 0.000000 
 0.580000 0.080000 0.000000 
 0.600000 0.080000 0.000000 
 0.620000 0.080000 0.000000 
 0.640000 0.080000 0.000000 
 0.660000 0.080000 0.000000 
 0.680000 0.080000 0.000000 
 0.700000 0.080000 0.000000 
 0.720000 0.080000 0.000000 
 0.740000 0.080000 0.000000 
 0.760000 0.080000 0.000000 
 0.780000 0.080000 0.000000 
 0.800000 0.080000 0.000000 
 0.820000 0.080000 0.000000 
 0.840000 0.080000 0.000000 
 0.860000 0.080000 0.000000 
 0.880000 0.080000 0.000000 
 0.900000 0.080000 0.000000 
 0.920000 0.080000 0.000000 
 0.940000 0.080000 0.000000 
 0.960000 0.080000 0.000000 
 0.980000 0.080000 0.000000 
 1.000000 0.080000 0.000000 
 0.000000 0.100000 0.000000 
 0.020000 0.100000 0.000000 
 0.040000 0.100000 0.000000 
 0.060000 0.100000 0.000000 
 0.080000 0.100000 0.000000 
 0.100000 0.100000 0.000000 
 0.120000 0.100000 0.000000 
 0.140000 0.100000 0.000000 
 0.160000 0.100000 0.000000 
 0.180000 0.100000 0.000000 
 0.200000 0.100000 0.000000 
 0.220000 0.100000 0.000000 
 0.240000 0.100000 0.000000 
 0.260000 0.100000 0.000000 
 0.280000 0.100000 0.000000 
 0.300000 0.100000 0.000000 
 0.320000 0.100000 0.000000 
 0.340000 0.100000 0.000000 
 0.360000 0.100000 0.000000 
 0.380000 0.100000 0.000000 
 0.400000 0.100000 0.000000 
 0.420000 0.100000 0.000000 
 0.440000 0.100000 0.000000 
 0.460000 0.100000 0.000000 
 0.480000 0.100000 0.000000 
 0.500000 0.100000 0.000000 
 0.520000 0.100000 0.000000 
 0.540000 0.100000 0.000000 
 0.560000 0.100000 0.000000 
 0.580000 0.100000 0.000000 
 0.600000 0.100000 0.000000 
 0.620000 0.100000 0.000000 
 0.640000 0.100000 0.000000 
 0.660000 0.100000 0.000000 
 0.680000 0.100000 0.000000 
 0.700000 0.100000 0.000000 
 0.720000 0.100000 0.000000 
 0.740000 0.100000 0.000000 
 0.760000 0.100000 0.000000 
 0.780000 0.100000 0.000000 
 0.800000 0.100000 0.000000 
 0.820000 0.100000 0.000000 
 0.840000 0.100000 0.000000 
 0.860000 0.100000 0.000000 
 0.880000 0.100000 0.000000 
 0.900000 0.100000 0.000000 
 0.920000 0.100000 0.000000 
 0.940000 0.100000 0.000000 
 0.960000 0.100000 0.000000 
 0.980000 0.100000 0.000000 
 1.000000 0.100000 0.000000 
 0.000000 0.120000 0.000000 
 0.020000 0.120000 0.000000 
 0.040000 0.120000 0.000000 
 0.060000 0.120000 0.000000 
 0.080000 0.120000 0.000000 
 0.100000 0.120000 0.000000 
 0.120000 0.120000 0.000000 
 0.140000 0.120000 0.000000 
 0.160000 0.120000 0.000000 
 0.180000 0.120000 0.000000 
 0.200000 0.120000 0.000000 
 0.220000 0.120000 0.000000 
 0.240000 0.120000 0.000000 
 0.260000 0.120000 0.000000 
 0.280000 0.120000 0.000000 
 0.300000 0.120000 0.000000 
 0.320000 0.120000 0.000000 
 0.340000 0.120000 0.000000 
 0.360000 0.120000 0.000000 
 0.380000 0.120000 0.000000 
 0.400000 0.120000 0.000000 
 0.420000 0.120000 0.000000 
 0.440000 0.120000 0.000000 
 0.460000 0.120000 0.000000 
 0.480000 0.120000 0.000000 
 0.500000 0.120000 0.000000 
 0.520000 0.120000 0.000000 
 0.540000 0.120000 0.000000 
 0.560000 0.120000 0.000000 
 0.580000 0.120000 0.000000 
 0.600000 0.120000 0.000000 
[...]
<PointData  Scalars="U"> 
<DataArray  type="Float64"  Name="U"  format="ascii"> 
 0.000000e+00
 0.000000e+00
 0.000000e+00
 0.000000e+00
 0.000000e+00
 0.000000e+00
 0.000000e+00
 0.000000e+00
 0.000000e+00
 0.000000e+00
 0.000000e+00
 0.000000e+00
 0.000000e+00
 0.000000e+00
 0.000000e+00
 0.000000e+00
 0.000000e+00
 0.000000e+00
 0.000000e+00
 0.000000e+00
 0.000000e+00
 0.000000e+00
 0.000000e+00
 0.000000e+00
 0.000000e+00
 0.000000e+00
 0.000000e+00
 0.000000e+00
 0.000000e+00
 0.000000e+00
 0.000000e+00
 0.000000e+00
 0.000000e+00
 0.000000e+00
 0.000000e+00
 0.000000e+00
 0.000000e+00
 0.000000e+00
 0.000000e+00
 0.000000e+00
 0.000000e+00
 0.000000e+00
 0.000000e+00
 0.000000e+00
 0.000000e+00
 0.000000e+00
 0.000000e+00
 0.000000e+00
 0.000000e+00
 0.000000e+00
 0.000000e+00
 0.000000e+00
 -1.547090e-07
 -2.218136e-07
 1.080183e-08
 2.106376e-07
 1.382360e-07
 4.819912e-08
 1.108219e-08
 4.645736e-09
 1.966704e-08
 6.440179e-08
 1.683943e-07
 1.297456e-07
 1.723448e-05
 -6.064580e-07
 -8.332995e-07
 -1.627780e-06
 -3.736456e-06
 -3.939808e-06
 -1.146628e-06
 -3.027605e-07
 -1.121163e-07
 -5.545957e-08
 3.244044e-08
 1.985667e-07
 2.692953e-07
 1.759363e-05
 -7.336254e-08
 1.721370e-05
 -4.073274e-07
 -2.925418e-07
 -2.099042e-07
 -1.663945e-07
 -1.439211e-07
 -1.291954e-07
 -1.196438e-07
 -1.227789e-07
 -2.169475e-07
 -1.242139e-06
 4.134400e-08
 8.999051e-07
 2.493997e-07
 9.122237e-08
 4.005940e-08
 1.986403e-08
 1.230444e-08
 1.048173e-08
 1.013926e-08
 8.552829e-09
 4.609815e-09
 0.000000e+00
 0.000000e+00
 -2.219039e-07
 -1.319309e-06
 -2.816969e-08
 8.593955e-07
 2.071886e-07
 4.122323e-08
 -5.371734e-09
 -9.471852e-09
 1.317691e-08
 7.391501e-08
 2.269535e-07
 7.762341e-07
 -3.484770e-07
 -1.952533e-06
 -1.241941e-06
 -1.642070e-06
 -2.299698e-06
 -3.284568e-06
 -1.325846e-06
 1.256658e-07
 -1.970506e-07
 -1.469093e-07
 -5.800133e-09
 2.464900e-07
 9.508989e-07
 1.670286e-07
 -5.301235e-07
 -4.097690e-07
 -1.634077e-06
 -5.517605e-07
 -3.741242e-07
 -3.140822e-07
 -2.821348e-07
 -2.534413e-07
 -2.337493e-07
 -1.965411e-07
 -8.929794e-08
 7.786185e-09
 1.758446e-05
 1.835232e-07
 1.832411e-07
 1.069971e-07
 5.538155e-08
 2.831917e-08
 1.916706e-08
 1.971822e-08
 2.181995e-08
 1.964901e-08
 1.164430e-08
 0.000000e+00
 0.000000e+00
 1.043720e-08
 -2.860616e-08
 1.741592e-05
 -5.752174e-08
 -3.892249e-08
 -5.727296e-08
 -5.690310e-08
 -4.672844e-08
 -2.617304e-08
 9.470431e-09
 6.040155e-08
 1.967196e-08
 -3.835044e-07
 -8.778742e-07
 -1.102675e-06
 -1.271066e-06
 -1.407033e-06
 -1.374803e-06
 1.635938e-05
 -7.815957e-07
 -4.916381e-07
 -3.012054e-07
 -1.288088e-07
 2.924608e-08
 6.522638e-08
 -1.289599e-07
 -1.290400e-07
 -1.669339e-07
 -4.492374e-07
 -4.967279e-07
 -4.455214e-07
 -4.417464e-07
 -4.246984e-07
 -3.607870e-07
 -3.570965e-07
 -3.553329e-07
 -3.249906e-08
 8.537644e-07
 2.700101e-07
 -8.329923e-07
 1.045898e-07
 9.531433e-08
 4.525483e-08
 1.870854e-08
 1.627996e-08
 2.779981e-08
 3.856653e-08
 3.727247e-08
 2.250633e-08
 0.000000e+00
 0.000000e+00
 2.096908e-07
 8.579971e-07
 -5.859808e-08
 -1.388043e-06
 -3.309323e-07
 -1.702047e-07
 -1.171155e-07
 -9.365428e-08
 -8.044945e-08
 -7.612751e-08
 -9.833634e-08
 -1.970286e-07
 -4.111114e-07
 -6.589306e-07
 -8.320476e-07
 -9.082461e-07
 -8.075372e-07
 -1.266944e-07
 -8.939636e-07
 -2.022054e-06
 -7.671201e-07
 -4.349112e-07
 -2.450680e-07
 -1.495349e-07
 -2.485999e-07
 -1.369797e-06
 -1.850449e-07
 5.759857e-07
 -1.745221e-07
 -3.768251e-07
 -4.584571e-07
 -5.835376e-07
 -6.488525e-07
 -4.088244e-07
 -2.747609e-07
 -1.384603e-06
 -2.925590e-07
 -3.762552e-07
 3.965173e-07
 1.078152e-06
 2.975017e-07
 8.419764e-08
 6.004913e-09
 -1.605462e-08
 -1.580110e-09
 3.723525e-08
 6.938944e-08
 6.960150e-08
 4.130227e-08
 0.000000e+00
 0.000000e+00
 1.361715e-07
 2.039991e-07
 -4.186653e-08
 -3.325395e-07
 -3.109682e-07
 -2.054232e-07
 -1.543250e-07
 -1.325363e-07
 -1.283659e-07
 -1.419119e-07
 -1.835038e-07
 -2.689240e-07
 -3.991665e-07
 -5.405816e-07
 -6.468077e-07
 -6.847932e-07
 -6.266299e-07
 -5.456667e-07
 -7.050538e-07
 -8.661699e-07
 -7.016931e-07
 -4.589128e-07
 -2.868580e-07
 -1.700373e-07
 -1.024215e-07
 -1.428047e-07
 1.725860e-05
 -2.718548e-07
 -3.005166e-07
 -3.525532e-07
 -4.121848e-07
 -6.058387e-07
 -1.768769e-06
 -4.920263e-07
 6.464492e-07
 6.255805e-08
 1.715814e-05
 -1.204639e-06
 1.773358e-05
 9.589441e-07
 1.749778e-07
 -3.890001e-08
 -8.055349e-08
 -8.640201e-08
 -4.899908e-08
 5.444541e-08
 1.386395e-07
 1.321002e-07
 7.206034e-08
 0.000000e+00
 0.000000e+00
 4.398245e-08
 3.474271e-08
 -6.327107e-08
 -1.737223e-07
 -2.062537e-07
 -1.867979e-07
 -1.649793e-07
 -1.556258e-07
 -1.602982e-07
 -1.811259e-07
 -2.226620e-07
 -2.884569e-07
 -3.737463e-07
 -4.614603e-07
 -5.292659e-07
 -5.607630e-07
 -5.572263e-07
 -5.560012e-07
 -5.970896e-07
 -6.181001e-07
 -5.442893e-07
 -4.128296e-07
 -2.766100e-07
 -1.373723e-07
 7.427863e-08
 7.235934e-07
 -2.032870e-07
 -1.545846e-06
 -4.937942e-07
 -3.260807e-07
 -2.618629e-07
 -2.424042e-07
 -3.866855e-07
 1.605966e-05
 2.237499e-08
 1.390167e-06
 -1.111178e-06
 -4.498836e-07
 1.815211e-05
 -1.292204e-06
 -4.452624e-07
 -2.930569e-07
 -1.785045e-07
 -1.949494e-07
 -1.917339e-07
 9.486955e-08
 3.258520e-07
 2.439348e-07
 1.085152e-07
 0.000000e+00
 0.000000e+00
 2.542035e-09
 -1.817502e-08
 -6.813476e-08
 -1.227823e-07
 -1.540909e-07
 -1.620123e-07
 -1.619008e-07
 -1.650161e-07
 -1.766045e-07
 -1.996125e-07
 -2.361044e-07
 -2.860288e-07
 -3.449180e-07
 -4.033856e-07
 -4.503971e-07
 -4.788461e-07
 -4.908997e-07
 -4.980452e-07
 -5.053293e-07
 -4.939735e-07
 -4.438358e-07
 -3.608952e-07
 -2.613764e-07
 -1.486098e-07
 -1.287619e-08
 6.333107e-08
 -1.708387e-07
 -4.431054e-07
 -3.893405e-07
 -2.279010e-07
 -7.512665e-08
 1.722196e-07
 9.033330e-07
 5.132223e-08
 1.629892e-05
 -8.848551e-08
 -1.007918e-06
 1.814498e-05
 3.601125e-07
 -1.930105e-06
 -1.055501e-06
 -5.320520e-07
 -1.211846e-07
 -1.537592e-07
 -1.206653e-06
 1.072975e-07
 9.976258e-07
 3.229188e-07
 1.128260e-07
 0.000000e+00
 0.000000e+00
 -1.301412e-08
 -3.507524e-08
 -6.749675e-08
 -1.017397e-07
 -1.278742e-07
 -1.438671e-07
 -1.545117e-07
 -1.656471e-07
 -1.814206e-07
 -2.043011e-07
 -2.353254e-07
 -2.736889e-07
 -3.161708e-07
 -3.574272e-07
 -3.917180e-07
 -4.154284e-07
 -4.287589e-07
 -4.342953e-07
 -4.317264e-07
 -4.148505e-07
 -3.779023e-07
 -3.226942e-07
 -2.561577e-07
 -1.855405e-07
 -1.250454e-07
 -1.140226e-07
 -1.827484e-07
 -2.505922e-07
 -2.224737e-07
 -1.151931e-07
 4.307503e-08
 2.790222e-07
 5.905684e-07
 1.094016e-06
 4.312536e-08
 -1.012067e-06
 7.662161e-07
 1.740065e-05
 -1.786148e-06
 -1.279654e-06
 -2.287144e-06
 -8.001917e-07
 5.162746e-07
 2.566702e-07
 1.765789e-07
 1.762349e-05
 1.312536e-07
 1.075991e-07
 4.481249e-08
 0.000000e+00
 0.000000e+00
 -1.809985e-08
 -3.957506e-08
 -6.476842e-08
 -9.053026e-08
 -1.130655e-07
 -1.311060e-07
 -1.462687e-07
 -1.613647e-07
 -1.789154e-07
 -2.005467e-07
 -2.267778e-07
 -2.568302e-07
 -2.885569e-07
 -3.188076e-07
 -3.443436e-07
 -3.629363e-07
 -3.738894e-07
 -3.773004e-07
 -3.724641e-07
 -3.574523e-07
 -3.311632e-07
 -2.955499e-07
 -2.554889e-07
 -2.176998e-07
 -1.910184e-07
 -1.840980e-07
 -1.914755e-07
 -1.833800e-07
 -1.333599e-07
 -4.114399e-08
 8.773929e-08
 2.525591e-07
 4.308098e-07
 5.065439e-07
 3.143412e-07
 2.789440e-07
 9.874395e-07
 -1.501923e-07
 -1.892719e-06
 -9.745255e-07
 -9.266226e-07
 1.560836e-05
 -4.556065e-07
 7.175289e-07
 1.057022e-06
 2.717229e-07
 -1.125595e-06
 -1.560149e-07
 -3.808855e-08
 0.000000e+00
 0.000000e+00
 -1.922652e-08
 -3.965907e-08
 -6.135342e-08
 -8.307257e-08
 -1.032961e-07
 -1.214046e-07
 -1.380141e-07
 -1.544692e-07
 -1.721468e-07
 -1.919742e-07
 -2.141677e-07
 -2.381121e-07
 -2.623971e-07
 -2.850870e-07
 -3.042075e-07
 -3.182510e-07
 -3.263931e-07
 -3.282570e-07
 -3.235074e-07
 -3.119322e-07
 -2.942693e-07
 -2.730925e-07
 -2.529135e-07
 -2.391664e-07
 -2.350221e-07
 -2.341780e-07
 -2.163658e-07
 -1.643495e-07
 -8.690259e-08
 -1.462747e-09
 9.252730e-08
 2.043496e-07
 3.173286e-07
 3.708079e-07
 3.399571e-07
 3.264540e-07
 2.982449e-07
 -7.243039e-08
 -4.739161e-07
 -3.638212e-07
 4.079658e-07
 -4.407349e-07
 1.568935e-05
 -1.587233e-06
 5.163394e-08
 8.109903e-07
 -5.530732e-08
 -1.539322e-07
 -6.765703e-08
 0.000000e+00
 0.000000e+00
 -1.892310e-08
 -3.822722e-08
 -5.786119e-08
 -7.729082e-08
 -9.587407e-08
 -1.133272e-07
 -1.299111e-07
 -1.462696e-07
 -1.631070e-07
 -1.808928e-07
 -1.996673e-07
 -2.189589e-07
 -2.378247e-07
 -2.550221e-07
 -2.692773e-07
 -2.795487e-07
 -2.851667e-07
 -2.858211e-07
 -2.815321e-07
 -2.728323e-07
 -2.612402e-07
 -2.498383e-07
 -2.436735e-07
 -2.494982e-07
 -2.726118e-07
 -3.012477e-07
 -2.815196e-07
 -1.724993e-07
 -4.404482e-08
 3.183969e-08
 7.512888e-08
 1.442710e-07
 2.665701e-07
 3.530484e-07
 3.369242e-07
 2.664958e-07
 1.558079e-07
 -1.943406e-08
 -1.512791e-07
 -7.983656e-08
 1.754467e-07
 6.615819e-07
 -4.102527e-07
 -1.625252e-06
 1.706449e-05
 -2.123926e-07
 -1.654033e-07
 -1.403676e-07
 -7.216880e-08
 0.000000e+00
 0.000000e+00
 -1.815423e-08
 -3.637104e-08
 -5.455262e-08
 -7.242477e-08
 -8.968393e-08
 -1.061872e-07
 -1.220423e-07
 -1.375489e-07
 -1.530441e-07
 -1.687340e-07
 -1.845672e-07
 -2.001787e-07
 -2.149154e-07
 -2.279419e-07
 -2.383983e-07
 -2.455605e-07
 -2.489521e-07
 -2.484046e-07
 -2.441286e-07
 -2.368904e-07
 -2.283611e-07
 -2.216853e-07
 -2.224561e-07
 -2.407008e-07
 -2.949633e-07
 -4.152648e-07
 -4.643059e-07
 -1.989249e-07
 7.294265e-08
 1.023190e-07
 3.046507e-08
 9.592938e-10
 2.570678e-07
 4.684223e-07
 3.757175e-07
 2.319253e-07
 1.115505e-07
 2.780829e-09
 -6.407749e-08
 -4.305415e-08
 6.412713e-08
 1.411914e-07
 4.093095e-08
 4.486324e-07
 -3.494980e-07
 -1.507252e-06
 -3.726407e-07
 -1.683716e-07
 -7.224345e-08
 0.000000e+00
 0.000000e+00
 -1.729134e-08
 -3.451543e-08
 -5.154724e-08
 -6.820185e-08
 -8.429616e-08
 -9.973001e-08
 -1.145283e-07
 -1.288163e-07
 -1.427418e-07
 -1.563773e-07
 -1.696385e-07
 -1.822413e-07
 -1.937124e-07
 -2.034558e-07
 -2.108566e-07
 -2.153944e-07
 -2.167367e-07
 -2.148043e-07
 -2.098326e-07
 -2.024757e-07
 -1.940119e-07
 -1.867643e-07
 -1.851010e-07
 -1.983781e-07
 -2.514475e-07
 -4.300429e-07
 -1.537478e-06
 -3.162458e-07
 5.716446e-07
 1.917826e-07
 1.355322e-07
 -1.014350e-06
 2.054714e-07
 1.059360e-06
 3.787049e-07
 1.715389e-07
 6.585771e-08
 -1.307720e-08
 -7.461704e-08
 -1.045243e-07
 -7.338872e-08
 4.540345e-09
 4.730226e-08
 3.692188e-08
 -1.412990e-07
 -3.141822e-07
 -2.413104e-07
 -1.231887e-07
 -5.478781e-08
 0.000000e+00
 0.000000e+00
 -1.648426e-08
 -3.284004e-08
 -4.891879e-08
 -6.455428e-08
 -7.959175e-08
 -9.392676e-08
 -1.075288e-07
 -1.204335e-07
 -1.327019e-07
 -1.443600e-07
 -1.553353e-07
 -1.654137e-07
 -1.742337e-07
 -1.813287e-07
 -1.862100e-07
 -1.884661e-07
 -1.878472e-07
 -1.843102e-07
 -1.780208e-07
 -1.693292e-07
 -1.587467e-07
 -1.469419e-07
 -1.347615e-07
 -1.232521e-07
 -1.133753e-07
 -1.026942e-07
 -1.673426e-07
 1.714574e-05
 -1.356813e-06
 1.709102e-08
 9.493762e-07
 2.945121e-07
 1.759686e-05
 8.310558e-08
 8.140281e-08
 3.856833e-08
 1.882655e-09
 -4.369991e-08
 -1.121859e-07
 -2.329079e-07
 -2.824781e-07
 -5.966389e-08
 4.646255e-08
 -9.953766e-08
 -1.984988e-08
 8.527618e-08
 1.002083e-08
 -3.589771e-08
 -2.743959e-08
 0.000000e+00
 0.000000e+00
 -1.580160e-08
 -3.143789e-08
 -4.673520e-08
 -6.151360e-08
 -7.560309e-08
 -8.886839e-08
 -1.012316e-07
 -1.126811e-07
 -1.232556e-07
 -1.330006e-07
 -1.419031e-07
 -1.498259e-07
 -1.564758e-07
 -1.614286e-07
 -1.642168e-07
 -1.644487e-07
 -1.619114e-07
 -1.565994e-07
 -1.486374e-07
 -1.380989e-07
 -1.247333e-07
 -1.075313e-07
 -8.377592e-08
 -4.627295e-08
 2.643318e-08
 2.110300e-07
 8.741981e-07
 2.666251e-09
 -1.309245e-06
 1.728460e-05
 1.681049e-07
 8.978639e-07
 -4.545083e-09
 -1.319799e-06
 -2.554922e-07
 -9.592376e-08
 -5.330640e-08
 -5.456374e-08
 -1.001557e-07
 -2.660308e-07
 -1.349120e-06
 -8.989216e-08
 6.340651e-07
 -1.110982e-06
 -7.697818e-09
 8.109448e-07
 1.480964e-07
 2.184682e-09
 -1.626146e-08
 0.000000e+00
 0.000000e+00
 -1.528254e-08
 -3.037325e-08
 -4.507187e-08
 -5.916769e-08
 -7.244861e-08
 -8.472375e-08
 -9.585756e-08
 -1.058055e-07
 -1.146288e-07
 -1.224623e-07
 -1.294228e-07
 -1.354876e-07
 -1.404064e-07
 -1.437065e-07
 -1.448118e-07
 -1.432383e-07
 -1.387748e-07
 -1.315323e-07
 -1.217798e-07
 -1.095804e-07
 -9.430986e-08
 -7.406702e-08
 -4.473474e-08
 1.944458e-09
 8.201432e-08
 2.190815e-07
 3.512292e-07
 2.981684e-07
 6.907947e-07
 -1.308859e-07
 -1.238283e-06
 -5.951359e-08
 -1.115770e-07
 -3.290744e-07
 -2.719768e-07
 -1.439228e-07
 -7.317176e-08
 -2.996733e-08
 7.178356e-10
 3.171104e-08
 8.553814e-09
 1.746451e-05
 3.771012e-09
 -2.144831e-08
 1.739511e-05
 -8.582324e-08
 -5.912845e-08
 -5.771470e-08
 -3.264927e-08
 0.000000e+00
 0.000000e+00
 -1.495372e-08
 -2.969862e-08
 -4.401075e-08
 -5.763984e-08
 -7.030902e-08
 -8.173612e-08
 -9.168847e-08
 -1.000684e-07
 -1.069900e-07
 -1.127730e-07
 -1.177972e-07
 -1.222546e-07
 -1.259362e-07
 -1.281948e-07
 -1.281348e-07
 -1.249780e-07
 -1.184495e-07
 -1.089437e-07
 -9.725653e-08
 -8.392822e-08
 -6.851439e-08
 -4.905816e-08
 -2.178082e-08
 1.888484e-08
 7.844682e-08
 1.530207e-07
 2.133743e-07
 2.385782e-07
 2.186340e-07
 -1.663898e-08
 -2.437693e-07
 -2.005675e-07
 -1.664740e-07
 -2.039430e-07
 -1.924605e-07
 -1.360713e-07
 -6.862131e-08
 6.394874e-09
 1.052279e-07
 3.012930e-07
 9.668003e-07
 1.034178e-07
 -1.064863e-06
 6.238061e-07
 -1.373087e-07
 -1.412362e-06
 -3.244962e-07
 -1.369184e-07
 -5.558678e-08
 0.000000e+00
 0.000000e+00
 -1.483108e-08
 -2.945213e-08
 -4.362762e-08
 -5.707004e-08
 -6.941875e-08
 -8.024574e-08
 -8.912951e-08
 -9.582824e-08
 -1.005030e-07
 -1.038104e-07
 -1.066664e-07
 -1.097174e-07
 -1.128425e-07
 -1.150199e-07
 -1.146449e-07
 -1.102141e-07
 -1.011809e-07
 -8.849576e-08
 -7.420290e-08
 -6.010334e-08
 -4.645303e-08
 -3.153983e-08
 -1.205726e-08
 1.590728e-08
 5.440355e-08
 9.870927e-08
 1.343203e-07
 1.429324e-07
 1.027839e-07
 3.940814e-10
 -9.890017e-08
 -1.344873e-07
 -1.456123e-07
 -1.596055e-07
 -1.592369e-07
 -1.316949e-07
 -7.024323e-08
 2.552442e-08
 1.419399e-07
 2.759075e-07
 3.560603e-07
 1.532414e-07
 -4.546599e-08
 3.097765e-08
 -1.067274e-07
 -3.358705e-07
 -2.758454e-07
 -1.401646e-07
 -5.889637e-08
 0.000000e+00
 0.000000e+00
 -1.491426e-08
 -2.964249e-08
 -4.396470e-08
 -5.758087e-08
 -7.004811e-08
 -8.072642e-08
 -8.882609e-08
 -9.370502e-08
 -9.543666e-08
 -9.525303e-08
 -9.520126e-08
 -9.694257e-08
 -1.005887e-07
 -1.044084e-07
 -1.053771e-07
 -1.003321e-07
 -8.777840e-08
 -6.961313e-08
 -5.066802e-08
 -3.547829e-08
 -2.537799e-08
 -1.845377e-08
 -1.103457e-08
 1.273571e-09
 2.249545e-08
 5.265663e-08
 8.226389e-08
 9.303127e-08
 6.952173e-08
 1.477841e-08
 -4.459746e-08
 -8.573560e-08
 -1.116430e-07
 -1.331607e-07
 -1.537200e-07
 -1.616398e-07
 -1.103305e-07
 2.694060e-08
 1.640836e-07
 2.211967e-07
 2.000784e-07
 1.111876e-07
 2.868044e-08
 -6.542730e-09
 -6.723540e-08
 -1.350347e-07
 -1.351559e-07
 -8.984296e-08
 -4.204015e-08
 0.000000e+00
 0.000000e+00
 -1.517815e-08
 -3.022613e-08
 -4.498409e-08
 -5.920536e-08
 -7.243408e-08
 -8.380057e-08
 -9.186408e-08
 -9.494713e-08
 -9.245131e-08
 -8.649795e-08
 -8.165499e-08
 -8.193158e-08
 -8.793197e-08
 -9.660329e-08
 -1.023928e-07
 -9.859151e-08
 -8.057851e-08
 -5.144803e-08
 -2.273952e-08
 -5.177979e-09
 -8.611569e-10
 -5.753539e-09
 -1.488029e-08
 -2.283434e-08
 -2.012988e-08
 5.311323e-09
 4.941883e-08
 8.061651e-08
 7.276403e-08
 3.306115e-08
 -1.459762e-08
 -5.309728e-08
 -8.030203e-08
 -1.064264e-07
 -1.524840e-07
 -2.505873e-07
 -2.655010e-07
 3.192145e-08
 2.878203e-07
 2.367290e-07
 1.309196e-07
 5.823351e-08
 2.130331e-08
 9.227402e-09
 -6.564908e-09
 -2.956337e-08
 -4.025690e-08
 -3.359943e-08
 -1.802042e-08
 0.000000e+00
 0.000000e+00
 -1.556797e-08
 -3.108714e-08
 -4.650820e-08
 -6.175384e-08
 -7.657467e-08
 -9.010553e-08
 -1.000421e-07
 -1.022810e-07
 -9.343213e-08
 -7.653165e-08
 -6.232511e-08
 -6.054893e-08
 -7.220276e-08
 -9.143427e-08
 -1.092276e-07
 -1.124831e-07
 -8.630110e-08
 -3.266575e-08
 1.817460e-08
 3.944453e-08
 3.284958e-08
 1.110410e-08
 -1.914330e-08
 -5.646676e-08
 -8.819092e-08
 -6.718700e-08
 3.062372e-08
 1.146139e-07
 1.106086e-07
 5.762481e-08
 3.411492e-09
 -3.373158e-08
 -5.164936e-08
 -6.214850e-08
 -9.913519e-08
 -2.532559e-07
 -1.317038e-06
 -4.596159e-09
 8.897253e-07
 2.230268e-07
 2.883916e-08
 -3.253935e-08
 -1.641243e-08
 3.504495e-08
 6.655293e-08
 5.930810e-08
 3.476487e-08
 1.464678e-08
 4.336533e-09
 0.000000e+00
 0.000000e+00
 -1.600696e-08
 -3.204427e-08
 -4.818730e-08
 -6.463874e-08
 -8.176342e-08
 -9.962131e-08
 -1.158943e-07
 -1.218942e-07
 -1.041475e-07
 -6.365782e-08
 -2.872719e-08
 -2.456373e-08
 -4.857174e-08
 -8.700884e-08
 -1.296188e-07
 -1.586330e-07
 -1.260589e-07
 -1.020425e-08
 9.517697e-08
 1.134574e-07
 8.009992e-08
 3.531612e-08
 -1.535190e-08
 -8.721490e-08
 -2.094393e-07
 -2.461888e-07
 3.018907e-08
 2.645960e-07
 1.941271e-07
 7.737977e-08
 2.358581e-09
 -3.573057e-08
 -3.382769e-08
 2.306311e-09
 4.326235e-08
 7.050801e-08
 2.794594e-08
 1.745570e-05
 -5.010234e-08
 -8.777492e-08
 -1.781761e-07
 -2.033281e-07
 -9.416257e-08
 8.903323e-08
 1.867187e-07
 1.643341e-07
 1.019111e-07
 5.169008e-08
 2.053364e-08
 0.000000e+00
 0.000000e+00
 -1.642162e-08
 -3.291664e-08
 -4.959543e-08
 -6.684178e-08
 -8.591115e-08
 -1.095838e-07
 -1.405100e-07
 -1.676449e-07
 -1.440290e-07
 -4.443911e-08
 4.201163e-08
 4.111605e-08
 -1.183122e-08
 -7.814143e-08
 -1.558503e-07
 -2.674385e-07
 -2.788842e-07
 2.749946e-08
 2.871187e-07
 2.350752e-07
 1.318185e-07
 6.260800e-08
 6.957144e-09
 -6.794356e-08
 -2.471147e-07
 -1.322352e-06
 -1.060507e-08
 8.916693e-07
 2.388953e-07
 5.271488e-08
 -3.262144e-08
 -7.919352e-08
 -5.617526e-08
 6.351525e-08
 2.098804e-07
 3.828978e-07
 9.797185e-07
 1.164019e-08
 -1.377905e-06
 -4.177777e-07
 -4.373742e-07
 -5.376794e-07
 -2.713844e-07
 2.602890e-07
 4.503481e-07
 2.986582e-07
 1.486315e-07
 6.792608e-08
 2.599839e-08
 0.000000e+00
 0.000000e+00
 -1.676363e-08
 -3.363931e-08
 -5.057234e-08
 -6.751395e-08
 -8.567556e-08
 -1.109906e-07
 -1.602113e-07
 -2.643559e-07
 -2.894887e-07
 -7.791986e-09
 2.274499e-07
 1.546475e-07
 3.111317e-08
 -6.176355e-08
 -1.499357e-07
 -3.090621e-07
 -1.333438e-06
 3.129274e-08
 9.636841e-07
 3.220850e-07
 1.446254e-07
 7.587765e-08
 4.290889e-08
 2.627830e-08
 2.738761e-08
 -1.244739e-08
 1.743692e-05
 -3.043447e-08
 -1.098971e-08
 -4.372216e-08
 -9.092413e-08
 -1.901790e-07
 -2.026519e-07
 1.087294e-07
 4.045588e-07
 4.391285e-07
 3.852470e-07
 6.477340e-08
 -2.861129e-07
 -3.547160e-07
 -4.767499e-07
 -1.660134e-06
 -1.382284e-06
 8.620896e-07
 1.141829e-06
 3.415242e-07
 1.233529e-07
 4.768916e-08
 1.668743e-08
 0.000000e+00
 0.000000e+00
 -1.695850e-08
 -3.427824e-08
 -5.168714e-08
 -6.766693e-08
 -8.005882e-08
 -9.152063e-08
 -1.253662e-07
 -2.705866e-07
 -1.325486e-06
 -7.118012e-09
 8.927143e-07
 2.331135e-07
 3.888523e-08
 -5.357679e-08
 -1.043120e-07
 -7.560506e-08
 -3.191793e-09
 1.755283e-05
 1.118518e-07
 1.155538e-07
 7.515647e-08
 5.952012e-08
 6.497126e-08
 1.076558e-07
 2.607174e-07
 8.873240e-07
 -3.573157e-08
 -1.361369e-06
 -2.928352e-07
 -1.237560e-07
 -9.606180e-08
 -2.179102e-07
 -1.256003e-06
 8.839748e-08
 1.028274e-06
 4.123160e-07
 2.246199e-07
 6.512366e-08
 -6.789099e-08
 -1.049572e-07
 -6.875905e-08
 -5.731741e-08
 1.739097e-05
 1.740287e-05
 -1.897266e-08
 1.474232e-09
 -1.078190e-08
 -9.252876e-09
 -4.918711e-09
 0.000000e+00
 0.000000e+00
 -1.669079e-08
 -3.460013e-08
 -5.399780e-08
 -7.192820e-08
 -7.834045e-08
 -5.792938e-08
 -8.805380e-09
 5.044710e-08
 3.915183e-08
 1.749081e-05
 1.287976e-08
 1.798717e-08
 -2.610892e-08
 -7.133047e-08
 -1.325212e-07
 2.471165e-09
 9.268393e-07
 2.622996e-07
 -1.109535e-06
 -1.354327e-07
 -1.567531e-08
 2.450352e-08
 5.650782e-08
 1.063952e-07
 1.928632e-07
 2.331984e-07
 -2.697108e-08
 -3.152281e-07
 -2.627640e-07
 -9.846906e-08
 1.390976e-08
 8.585680e-08
 8.034479e-08
 1.754947e-05