<VTKFile type="UnstructuredGrid"  version="0.1"   >
<UnstructuredGrid>  
<Piece  NumberOfPoints="     2601"  NumberOfCells="     5000">  
<Points>  
<DataArray  type="Float64"  NumberOfComponents="3"  format="ascii">  
 0.000000 0.000000 0.000000 
 0.020000 0.000000 0.000000 
 0.040000 0.000000 0.000000 
 0.060000 0.000000 0.000000 
 0.080000 0.000000 0.000000 
 0.100000 0.000000 0.000000 
 0.120000 0.000000 0.000000 
 0.140000 0.000000 0.000000 
 0.160000 0.000000 0.000000 
 0.180000 0.000000 0.000000 
 0.200000 0.000000 0.000000 
 0.220000 0.000000 0.000000 
 0.240000 0.000000 0.000000 
 0.260000 0.000000 0.000000 
 0.280000 0.000000 0.000000 
 0.300000 0.000000 0.000000 
 0.320000 0.000000 0.000000 
 0.340000 0.000000 0.000000 
 0.360000 0.000000 0.000000 
 0.380000 0.000000 0.000000 
 0.400000 0.000000 0.000000 
 0.420000 0.000000 0.000000 
 0.440000 0.000000 0.000000 
 0.460000 0.000000 0.000000 
 0.480000 0.000000 0.000000 
 0.500000 0.000000 0.000000 
 0.520000 0.000000 0.000000 
 0.540000 0.000000 0.000000 
 0.560000 0.000000 0.000000 
 0.580000 0.000000 0.000000 
 0.600000 0.000000 0.000000 
 0.620000 0.000000 0.000000 
 0.640000 0.000000 0.000000 
 0.660000 0.000000 0.000000 
 0.680000 0.000000 0.000000 
 0.700000 0.000000 0.000000 
 0.720000 0.000000 0.000000 
 0.740000 0.000000 0.000000 
 0.760000 0.000000 0.000000 
 0.780000 0.000000 0.000000 
 0.800000 0.000000 0.000000 
 0.820000 0.000000 0.000000 
 0.840000 0.000000 0.000000 
 0.860000 0.000000 0.000000 
 0.880000 0.000000 0.000000 
 0.900000 0.000000 0.000000 
 0.920000 0.000000 0.000000 
 0.940000 0.000000 0.000000 
 0.960000 0.000000 0.000000 
 0.980000 0.000000 0.000000 
 1.000000 0.000000 0.000000 
 0.000000 0.020000 0.000000 
 0.020000 0.020000 0.000000 
 0.040000 0.020000 0.000000 
 0.060000 0.020000 0.000000 
 0.080000 0.020000 0.000000 
 0.100000 0.020000 0.000000 
 0.120000 0.020000 0.000000 
 0.140000 0.020000 0.000000 
 0.160000 0.020000 0.000000 
 0.180000 0.020000 0.000000 
 0.200000 0.020000 0.000000 
 0.220000 0.020000 0.000000 
 0.240000 0.020000 0.000000 
 0.260000 0.020000 0.000000 
 0.280000 0.020000 0.000000 
 0.300000 0.020000 0.000000 
 0.320000 0.020000 0.000000 
 0.340000 0.020000 0.000000 
 0.360000 0.020000 0.000000 
 0.380000 0.020000 0.000000 
 0.400000 0.020000 0.000000 
 0.420000 0.020000 0.000000 
 0.440000 0.020000 0.000000 
 0.460000 0.020000 0.000000 
 0.480000 0.020000 0.000000 
 0.500000 0.020000 0.000000 
 0.520000 0.020000 0.000000 
 0.540000 0.020000 0.000000 
 0.560000 0.020000 0.000000 
 0.580000 0.020000 0.000000 
 0.600000 0.020000 0.000000 
 0.620000 0.020000 0.000000 
 0.640000 0.020000 0.000000 
 0.660000 0.020000 0.000000 
 0.680000 0.020000 0.000000 
 0.700000 0.020000 0.000000 
 0.720000 0.020000 0.000000 
 0.740000 0.020000 0.000000 
 0.760000 0.020000 0.000000 
 0.780000 0.020000 0.000000 
 0.800000 0.020000 0.000000 
 0.820000 0.020000 0.000000 
 0.840000 0.020000 0.000000 
 0.860000 0.020000 0.000000 
 0.880000 0.020000 0.000000 
 0.900000 0.020000 0.000000 
 0.920000 0.020000 0.000000 
 0.940000 0.020000 0.000000 
 0.960000 0.020000 0.000000 
 0.980000 0.020000 0.000000 
 1.000000 0.020000 0.000000 
 0.000000 0.040000 0.000000 
 0.020000 0.040000 0.000000 
 0.040000 0.040000 0.000000 
 0.060000 0.040000 0.000000 
 0.080000 0.040000 0.000000 
 0.100000 0.040000 0.000000 
 0.120000 0.040000 0.000000 
 0.140000 0.040000 0.000000 
 0.160000 0.040000 0.000000 
 0.180000 0.040000 0.000000 
 0.200000 0.040000 0.000000 
 0.220000 0.040000 0.000000 
 0.240000 0.040000 0.000000 
 0.260000 0.040000 0.000000 
 0.280000 0.040000 0.000000 
 0.300000 0.040000 0.000000 
 0.320000 0.040000 0.000000 
 0.340000 0.040000 0.000000 
 0.360000 0.040000 0.000000 
 0.380000 0.040000 0.000000 
 0.400000 0.040000 0.000000 
 0.420000 0.040000 0.000000 
 0.440000 0.040000 0.000000 
 0.460000 0.040000 0.000000 
 0.480000 0.040000 0.000000 
 0.500000 0.040000 0.000000 
 0.520000 0.040000 0.000000 
 0.540000 0.040000 0.000000 
 0.560000 0.040000 0.000000 
 0.580000 0.040000 0.000000 
 0.600000 0.040000 0.000000 
 0.620000 0.040000 0.000000 
 0.640000 0.040000 0.000000 
 0.660000 0.040000 0.000000 
 0.680000 0.040000 0.000000 
 0.700000 0.040000 0.000000 
 0.720000 0.040000 0.000000 
 0.740000 0.040000 0.000000 
 0.760000 0.040000 0.000000 
 0.780000 0.040000 0.000000 
 0.800000 0.040000 0.000000 
 0.820000 0.040000 0.000000 
 0.840000 0.040000 0.000000 
 0.860000 0.040000 0.000000 
 0.880000 0.040000 0.000000 
 0.900000 0.040000 0.000000 
 0.920000 0.040000 0.000000 
 0.940000 0.040000 0.000000 
 0.960000 0.040000 0.000000 
 0.980000 0.040000 0.000000 
 1.000000 0.040000 0.000000 
 0.000000 0.060000 0.000000 
 0.020000 0.060000 0.000000 
 0.040000 0.060000 0.000000 
 0.060000 0.060000 0.000000 
 0.080000 0.060000 0.000000 
 0.100000 0.060000 0.000000 
 0.120000 0.060000 0.000000 
 0.140000 0.060000 0.000000 
 0.160000 0.060000 0.000000 
 0.180000 0.060000 0.000000 
 0.200000 0.060000 0.000000 
 0.220000 0.060000 0.000000 
 0.240000 0.060000 0.000000 
 0.260000 0.060000 0.000000 
 0.280000 0.060000 0.000000 
 0.300000 0.060000 0.000000 
 0.320000 0.060000 0.000000 
 0.340000 0.060000 0.000000 
 0.360000 0.060000 0.000000 
 0.380000 0.060000 0.000000 
 0.400000 0.060000 0.000000 
 0.420000 0.060000 0.000000 
 0.440000 0.060000 0.000000 
 0.460000 0.060000 0.000000 
 0.480000 0.060000 0.000000 
 0.500000 0.060000 0.000000 
 0.520000 0.060000 0.000000 
 0.540000 0.060000 0.000000 
 0.560000 0.060000 0.000000 
 0.580000 0.060000 0.000000 
 0.600000 0.060000 0.000000 
 0.620000 0.060000 0.000000 
 0.640000 0.060000 0.000000 
 0.660000 0.060000 0.000000 
 0.680000 0.060000 0.000000 
 0.700000 0.060000 0.000000 
 0.720000 0.060000 0.000000 
 0.740000 0.060000 0.000000 
 0.760000 0.060000 0.000000 
 0.780000 0.060000 0.000000 
 0.800000 0.060000 0.000000 
 0.820000 0.060000 0.000000 
 0.840000 0.060000 0.000000 
 0.860000 0.060000 0.000000 
 0.880000 0.060000 0.000000 
 0.900000 0.060000 0.000000 
 0.920000 0.060000 0.000000 
 0.940000 0.060000 0.000000 
 0.960000 0.060000 0.000000 
 0.980000 0.060000 0.000000 
 1.000000 0.060000 0.000000 
 0.000000 0.080000 0.000000 
 0.020000 0.080000 0.000000 
 0.040000 0.080000 0.000000 
 0.060000 0.080000 0.000000 
 0.080000 0.080000 0.000000 
 0.100000 0.080000 0.000000 
 0.120000 0.080000 0.000000 
 0.140000 0.080000 0.000000 
 0.160000 0.080000 0.000000 
 0.180000 0.080000 0.000000 
 0.200000 0.080000 0.000000 
 0.220000 0.080000 0.000000 
 0.240000 0.080000 0.000000 
 0.260000 0.080000 0.000000 
 0.280000 0.080000 0.000000 
 0.300000 0.080000 0.000000 
 0.320000 0.080000 0.000000 
 0.340000 0.080000 0.000000 
 0.360000 0.080000 0.000000 
 0.380000 0.080000 0.000000 
 0.400000 0.080000 0.000000 
 0.420000 0.080000 0.000000 
 0.440000 0.080000 0.000000 
 0.460000 0.080000 0.000000 
 0.480000 0.080000 0.000000 
 0.500000 0.080000 0.000000 
 0.520000 0.080000 0.000000 
 0.540000 0.080000 0.000000 
 0.560000 0.080000 0.000000 
 0.580000 0.080000 0.000000 
 0.600000 0.080000 0.000000 
 0.620000 0.080000 0.000000 
 0.640000 0.080000 0.000000 
 0.660000 0.080000 0.000000 
 0.680000 0.080000 0.000000 
 0.700000 0.080000 0.000000 
 0.720000 0.080000 0.000000 
 0.740000 0.080000 0.000000 
 0.760000 0.080000 0.000000 
 0.780000 0.080000 0.000000 
 0.800000 0.080000 0.000000 
 0.820000 0.080000 0.000000 
 0.840000 0.080000 0.000000 
 0.860000 0.080000 0.000000 
 0.880000 0.080000 0.000000 
 0.900000 0.080000 0.000000 
 0.920000 0.080000 0.000000 
 0.940000 0.080000 0.000000 
 0.960000 0.080000 0.000000 
 0.980000 0.080000 0.000000 
 1.000000 0.080000 0.000000 
 0.000000 0.100000 0.000000 
 0.020000 0.100000 0.000000 
 0.040000 0.100000 0.000000 
 0.060000 0.100000 0.000000 
 0.080000 0.100000 0.000000 
 0.100000 0.100000 0.000000 
 0.120000 0.100000 0.000000 
 0.140000 0.100000 0.000000 
 0.160000 0.100000 0.000000 
 0.180000 0.100000 0.000000 
 0.200000 0.100000 0.000000 
 0.220000 0.100000 0.000000 
 0.240000 0.100000 0.000000 
 0.260000 0.100000 0.000000 
 0.280000 0.100000 0.000000 
 0.300000 0.100000 0.000000 
 0.320000 0.100000 0.000000 
 0.340000 0.100000 0.000000 
 0.360000 0.100000 0.000000 
 0.380000 0.100000 0.000000 
 0.400000 0.100000 0.000000 
 0.420000 0.100000 0.000000 
 0.440000 0.100000 0.000000 
 0.460000 0.100000 0.000000 
 0.480000 0.100000 0.000000 
 0.500000 0.100000 0.000000 
 0.520000 0.100000 0.000000 
 0.540000 0.100000 0.000000 
 0.560000 0.100000 0.000000 
 0.580000 0.100000 0.000000 
 0.600000 0.100000 0.000000 
 0.620000 0.100000 0.000000 
 0.640000 0.100000 0.000000 
 0.660000 0.100000 0.000000 
 0.680000 0.100000 0.000000 
 0.700000 0.100000 0.000000 
 0.720000 0.100000 0.000000 
 0.740000 0.100000 0.000000 
 0.760000 0.100000 0.000000 
 0.780000 0.100000 0.000000 
 0.800000 0.100000 0.000000 
 0.820000 0.100000 0.000000 
 0.840000 0.100000 0.000000 
 0.860000 0.100000 0.000000 
 0.880000 0.100000 0.000000 
 0.900000 0.100000 0.000000 
 0.920000 0.100000 0.000000 
 0.940000 0.100000 0.000000 
 0.960000 0.100000 0.000000 
 0.980000 0.100000 0.000000 
 1.000000 0.100000 0.000000 
 0.000000 0.120000 0.000000 
 0.020000 0.120000 0.000000 
 0.040000 0.120000 0.000000 
 0.060000 0.120000 0.000000 
 0.080000 0.120000 0.000000 
 0.100000 0.120000 0.000000 
 0.120000 0.120000 0.000000 
 0.140000 0.120000 0.000000 
 0.160000 0.120000 0.000000 
 0.180000 0.120000 0.000000 
 0.200000 0.120000 0.000000 
 0.220000 0.120000 0.000000 
 0.240000 0.120000 0.000000 
 0.260000 0.120000 0.000000 
 0.280000 0.120000 0.000000 
 0.300000 0.120000 0.000000 
 0.320000 0.120000 0.000000 
 0.340000 0.120000 0.000000 
 0.360000 0.120000 0.000000 
 0.380000 0.120000 0.000000 
 0.400000 0.120000 0.000000 
 0.420000 0.120000 0.000000 
 0.440000 0.120000 0.000000 
 0.460000 0.120000 0.000000 
 0.480000 0.120000 0.000000 
 0.500000 0.120000 0.000000 
 0.520000 0.120000 0.000000 
 0.540000 0.120000 0.000000 
 0.560000 0.120000 0.000000 
 0.580000 0.120000 0.000000 
 0.600000 0.120000 0.000000 
[...]
<PointData  Scalars="U"> 
<DataArray  type="Float64"  Name="U"  format="ascii"> 
 0.000000e+00
 0.000000e+00
 0.000000e+00
 0.000000e+00
 0.000000e+00
 0.000000e+00
 0.000000e+00
 0.000000e+00
 0.000000e+00
 0.000000e+00
 0.000000e+00
 0.000000e+00
 0.000000e+00
 0.000000e+00
 0.000000e+00
 0.000000e+00
 0.000000e+00
 0.000000e+00
 0.000000e+00
 0.000000e+00
 0.000000e+00
 0.000000e+00
 0.000000e+00
 0.000000e+00
 0.000000e+00
 0.000000e+00
 0.000000e+00
 0.000000e+00
 0.000000e+00
 0.000000e+00
 0.000000e+00
 0.000000e+00
 0.000000e+00
 0.000000e+00
 0.000000e+00
 0.000000e+00
 0.000000e+00
 0.000000e+00
 0.000000e+00
 0.000000e+00
 0.000000e+00
 0.000000e+00
 0.000000e+00
 0.000000e+00
 0.000000e+00
 0.000000e+00
 0.000000e+00
 0.000000e+00
 0.000000e+00
 0.000000e+00
 0.000000e+00
 0.000000e+00
 -3.468322e-08
 -5.540207e-08
 -6.294575e-08
 -8.337216e-08
 -1.665010e-07
 -3.733081e-07
 -4.114645e-07
 2.223472e-07
 6.470738e-07
 1.767592e-05
 -2.915195e-07
 -1.359445e-06
 -2.533718e-07
 -5.394785e-07
 -3.081300e-09
 6.413516e-07
 -1.068530e-07
 -4.527481e-07
 -1.695233e-06
 -7.692187e-07
 -7.750816e-07
 -3.463612e-06
 -3.751567e-06
 -1.198657e-06
 -5.416672e-07
 -2.896296e-07
 -1.838194e-07
 -1.346616e-07
 -1.075361e-07
 -8.959570e-08
 -7.605921e-08
 -6.492254e-08
 -5.521961e-08
 -4.654513e-08
 -3.892824e-08
 -3.272478e-08
 -2.847136e-08
 -2.678572e-08
 -2.839219e-08
 -3.418166e-08
 -4.484422e-08
 -5.893787e-08
 -6.876402e-08
 -6.091180e-08
 -3.369093e-08
 -9.075396e-09
 -3.811448e-09
 -8.183565e-09
 -7.064260e-09
 0.000000e+00
 0.000000e+00
 -8.585575e-08
 -1.286330e-07
 -1.171378e-07
 -1.066339e-07
 -2.059828e-07
 -5.727333e-07
 -2.657385e-06
 2.434955e-07
 2.687911e-06
 3.532802e-07
 -1.171572e-06
 -9.660198e-08
 1.738197e-05
 -2.363512e-07
 1.713301e-05
 -4.314776e-07
 -4.736652e-07
 -5.653343e-07
 -7.782847e-07
 1.632836e-05
 -1.704921e-06
 -2.245648e-06
 -2.144799e-06
 -1.390753e-06
 -7.590677e-07
 -4.531712e-07
 -3.188938e-07
 -2.504761e-07
 -2.070128e-07
 -1.751645e-07
 -1.498624e-07
 -1.284973e-07
 -1.094838e-07
 -9.208888e-08
 -7.647184e-08
 -6.350883e-08
 -5.439016e-08
 -5.031564e-08
 -5.260755e-08
 -6.322840e-08
 -8.516643e-08
 -1.205121e-07
 -1.571097e-07
 -1.469308e-07
 -6.358334e-08
 7.394318e-09
 2.507656e-09
 -2.461806e-08
 -2.420389e-08
 0.000000e+00
 0.000000e+00
 -1.848269e-07
 -2.691405e-07
 -1.800600e-07
 -2.175071e-08
 -1.019709e-08
 -2.169643e-07
 -3.852750e-07
 3.505746e-05
 4.448975e-07
 -9.525006e-07
 -2.720221e-08
 1.452761e-06
 9.186711e-08
 -7.699408e-07
 -7.180177e-07
 -1.949336e-06
 -8.737138e-07
 -6.363912e-07
 -9.986278e-08
 -1.245706e-06
 -2.870198e-06
 -2.036258e-06
 -1.784424e-06
 -1.174546e-06
 -6.291201e-07
 -4.596763e-07
 -3.997472e-07
 -3.450531e-07
 -2.959344e-07
 -2.545012e-07
 -2.198712e-07
 -1.898589e-07
 -1.622860e-07
 -1.359824e-07
 -1.114110e-07
 -9.043674e-08
 -7.527200e-08
 -6.758458e-08
 -6.870522e-08
 -8.103333e-08
 -1.106704e-07
 -1.721554e-07
 -2.924857e-07
 -3.354183e-07
 -7.558223e-08
 1.289771e-07
 2.566670e-08
 -8.009112e-08
 -6.726847e-08
 0.000000e+00
 0.000000e+00
 -3.816811e-07
 -6.211951e-07
 -3.392752e-07
 2.444791e-07
 4.370289e-07
 2.616218e-07
 -7.532789e-07
 -2.389044e-08
 -9.115572e-07
 -2.002007e-07
 1.722877e-05
 -1.637019e-07
 -2.680623e-07
 -5.195807e-07
 -7.840715e-07
 -1.024929e-06
 -1.002768e-06
 -8.705608e-07
 -8.352200e-07
 -1.240643e-06
 -1.732958e-06
 -1.699984e-06
 -2.408142e-06
 -9.637778e-07
 6.005526e-08
 -4.417617e-07
 -4.804193e-07
 -4.333654e-07
 -3.766438e-07
 -3.268388e-07
 -2.852693e-07
 -2.489566e-07
 -2.141178e-07
 -1.784062e-07
 -1.428059e-07
 -1.114283e-07
 -8.858652e-08
 -7.619529e-08
 -7.415471e-08
 -8.284444e-08
 -1.069441e-07
 -1.656254e-07
 -3.367137e-07
 -1.411058e-06
 -1.134012e-07
 7.393191e-07
 -3.317186e-08
 -2.816486e-07
 -1.554807e-07
 0.000000e+00
 0.000000e+00
 -5.505527e-07
 -1.938184e-06
 -1.462009e-06
 1.018710e-06
 1.329661e-06
 6.583238e-07
 4.644764e-07
 3.483453e-05
 -5.772213e-07
 8.835179e-08
 -6.567573e-07
 -1.821695e-06
 -7.157218e-07
 -6.604884e-07
 -7.861567e-07
 -9.402629e-07
 -1.081606e-06
 -1.126131e-06
 -9.539925e-07
 -1.035937e-06
 -2.322860e-06
 -1.139851e-06
 -2.533600e-07
 1.666066e-05
 -8.274178e-07
 -7.103540e-07
 -6.173715e-07
 -5.243182e-07
 -4.485181e-07
 -3.903758e-07
 -3.452925e-07
 -3.068143e-07
 -2.674412e-07
 -2.213406e-07
 -1.699996e-07
 -1.233774e-07
 -9.105678e-08
 -7.452224e-08
 -6.947954e-08
 -7.105609e-08
 -7.528054e-08
 -7.695506e-08
 -6.299775e-08
 -8.774678e-08
 1.736970e-05
 -1.300275e-07
 -2.762430e-07
 -1.410673e-06
 -2.641287e-07
 0.000000e+00
 0.000000e+00
 -3.166928e-07
 -1.510295e-06
 1.718352e-05
 1.811442e-05
 1.867140e-07
 4.362501e-07
 1.661308e-06
 -3.213349e-07
 -3.140567e-06
 -1.148714e-06
 -1.078040e-06
 -9.587570e-07
 -6.701473e-07
 -6.574922e-07
 -7.716807e-07
 -8.951193e-07
 -1.095493e-06
 -2.182886e-06
 -8.996277e-07
 -3.142994e-08
 -7.218946e-07
 1.670409e-05
 -1.455842e-07
 -9.758506e-07
 -2.211549e-06
 -1.028873e-06
 -7.468044e-07
 -5.958472e-07
 -5.020868e-07
 -4.406112e-07
 -3.984745e-07
 -3.657070e-07
 -3.288346e-07
 -2.713254e-07
 -1.923633e-07
 -1.192837e-07
 -7.671928e-08
 -6.140662e-08
 -5.843145e-08
 -5.648651e-08
 -4.522736e-08
 7.623228e-11
 1.650937e-07
 8.286056e-07
 -3.358910e-08
 -1.303775e-06
 -2.030677e-07
 -7.099723e-08
 1.741700e-05
 0.000000e+00
 0.000000e+00
 1.366148e-07
 8.012575e-07
 1.791712e-05
 -1.781743e-06
 -1.925076e-06
 -4.820507e-07
 -7.457193e-08
 -4.705982e-07
 -1.111423e-06
 -1.295525e-06
 -2.259092e-06
 -9.386526e-07
 -9.428142e-09
 -6.165151e-07
 -7.632105e-07
 -8.084320e-07
 -8.079375e-07
 -8.315128e-07
 1.666353e-05
 -6.465365e-07
 3.403511e-08
 -8.175873e-07
 -2.076292e-06
 -1.209262e-06
 -1.236992e-06
 -1.028818e-06
 -7.722445e-07
 -6.152521e-07
 -5.249643e-07
 -4.720274e-07
 -4.415912e-07
 -4.274651e-07
 -4.134612e-07
 -3.493321e-07
 -2.081242e-07
 -7.828498e-08
 -3.351272e-08
 -3.716173e-08
 -4.674454e-08
 -4.942003e-08
 -4.168581e-08
 -1.360951e-08
 6.428157e-08
 1.603233e-07
 5.146896e-08
 -6.500413e-08
 1.729990e-07
 9.564144e-07
 2.420466e-07
 0.000000e+00
 0.000000e+00
 1.669008e-07
 8.033966e-07
 -3.959328e-07
 -2.293474e-06
 -1.527806e-06
 -1.172514e-06
 -6.842506e-07
 -5.314728e-07
 -7.599123e-07
 -8.938528e-07
 -9.463176e-07
 1.652028e-05
 -9.172346e-07
 -8.557313e-07
 -8.277906e-07
 -7.581941e-07
 -5.758300e-07
 8.919032e-08
 -7.735694e-07
 -1.999224e-06
 -8.699605e-07
 -9.354873e-07
 -1.186367e-06
 -1.216734e-06
 -1.118268e-06
 -9.134541e-07
 -6.934882e-07
 -5.692652e-07
 -5.133778e-07
 -4.825866e-07
 -4.675964e-07
 -4.806655e-07
 -5.486962e-07
 -5.342135e-07
 -2.082514e-07
 7.526671e-08
 5.424982e-08
 -1.316627e-08
 -4.301306e-08
 -5.172638e-08
 -5.515578e-08
 -7.192889e-08
 -1.398733e-07
 -1.588586e-07
 7.284510e-08
 2.917728e-07
 3.471981e-07
 4.008170e-07
 2.543590e-07
 0.000000e+00
 0.000000e+00
 -2.088912e-07
 -3.877227e-07
 -8.482589e-07
 -1.365593e-06
 -1.562304e-06
 -2.446593e-06
 -9.921922e-07
 -3.610147e-08
 -6.478182e-07
 -6.577553e-07
 -5.401604e-08
 -9.543714e-07
 -2.245503e-06
 -1.140302e-06
 -9.224473e-07
 -7.922293e-07
 -6.531596e-07
 -5.640225e-07
 -7.722243e-07
 -1.021083e-06
 -9.985700e-07
 -9.836820e-07
 -1.071868e-06
 -1.181938e-06
 -1.166197e-06
 -8.118367e-07
 -4.840046e-07
 -4.579828e-07
 -4.836867e-07
 -4.802816e-07
 -4.683562e-07
 -4.793558e-07
 -5.974478e-07
 -1.614619e-06
 -2.483078e-07
 7.053903e-07
 1.028639e-07
 -3.075366e-08
 -5.921750e-08
 -5.950698e-08
 -5.849644e-08
 -8.522899e-08
 -2.272068e-07
 -1.284100e-06
 3.083510e-08
 9.514762e-07
 3.540917e-07
 2.223527e-07
 1.259061e-07
 0.000000e+00
 0.000000e+00
 -7.454053e-07
 -1.116312e-06
 -1.299756e-06
 -1.396105e-06
 -1.354465e-06
 -1.272821e-06
 1.630066e-05
 -1.068549e-06
 -9.517268e-07
 -8.405067e-07
 -7.523745e-07
 -9.563023e-07
 -1.196014e-06
 -1.119952e-06
 -9.571391e-07
 -8.452229e-07
 -7.677315e-07
 -7.497113e-07
 -8.196997e-07
 -9.045748e-07
 -9.267207e-07
 -9.263301e-07
 -9.615714e-07
 -1.104569e-06
 -2.135086e-06
 -7.673253e-07
 2.006969e-07
 -3.796046e-07
 -4.872418e-07
 -4.867428e-07
 -4.519266e-07
 -4.004880e-07
 -3.310671e-07
 -3.053022e-07
 1.720338e-05
 -2.121774e-07
 -1.454899e-07
 -1.262308e-07
 -9.781766e-08
 -6.886109e-08
 -4.094741e-08
 -1.405577e-08
 1.814823e-08
 -1.744285e-09
 1.746145e-05
 1.217048e-08
 5.921438e-08
 5.610905e-08
 3.858730e-08
 0.000000e+00
 0.000000e+00
 -1.809910e-06
 -1.979929e-06
 -1.807923e-06
 -1.587479e-06
 -1.274434e-06
 -5.003229e-07
 -1.291265e-06
 -2.504538e-06
 -1.339536e-06
 -1.083833e-06
 -9.860038e-07
 -1.004215e-06
 -1.045957e-06
 -1.017196e-06
 -9.425265e-07
 -8.724608e-07
 -8.280809e-07
 -8.212190e-07
 -8.500699e-07
 -8.813490e-07
 -8.752226e-07
 -8.295097e-07
 -7.750066e-07
 -7.252042e-07
 -7.297829e-07
 1.675543e-05
 -6.699867e-07
 -6.013168e-07
 -5.710353e-07
 -5.209781e-07
 -4.500652e-07
 -3.353075e-07
 -1.032621e-07
 6.006065e-07
 -2.568983e-07
 -1.533007e-06
 -4.289728e-07
 -2.266923e-07
 -1.362752e-07
 -7.706195e-08
 -2.189666e-08
 5.608954e-08
 2.342390e-07
 8.779418e-07
 -3.318991e-08
 -1.348561e-06
 -2.693197e-07
 -8.651945e-08
 -2.303694e-08
 0.000000e+00
 0.000000e+00
 -4.251382e-06
 -3.008359e-06
 -2.332028e-06
 -1.840916e-06
 -1.485823e-06
 -1.266470e-06
 -1.380198e-06
 -1.546521e-06
 -1.409347e-06
 -1.204027e-06
 -1.082923e-06
 -1.025853e-06
 -9.965350e-07
 -9.611880e-07
 -9.157435e-07
 -8.740087e-07
 -8.492468e-07
 -8.500417e-07
 -8.760867e-07
 -9.036533e-07
 -8.703900e-07
 -7.380157e-07
 -5.732121e-07
 -3.732266e-07
 2.627940e-07
 -6.489204e-07
 -1.955839e-06
 -8.664159e-07
 -6.691164e-07
 -5.733296e-07
 -4.865852e-07
 -3.615532e-07
 -1.750980e-07
 -3.443295e-08
 -2.188387e-07
 -4.612894e-07
 -3.951686e-07
 -2.449959e-07
 -1.494715e-07
 -8.124240e-08
 -1.990091e-08
 5.350898e-08
 1.573088e-07
 2.091168e-07
 -4.509181e-08
 -3.329715e-07
 -2.868907e-07
 -1.373413e-07
 -4.694451e-08
 0.000000e+00
 0.000000e+00
 -5.421488e-06
 -3.755342e-06
 -2.686475e-06
 -1.943121e-06
 -1.655689e-06
 -1.535493e-06
 -1.500670e-06
 -1.477231e-06
 -1.380355e-06
 -1.239581e-06
 -1.111910e-06
 -1.019660e-06
 -9.598482e-07
 -9.182463e-07
 -8.845434e-07
 -8.578996e-07
 -8.436211e-07
 -8.503482e-07
 -8.914589e-07
 -9.879216e-07
 -9.933261e-07
 -6.681491e-07
 -3.517157e-07
 -2.895206e-07
 -3.074556e-07
 -5.806118e-07
 -8.649245e-07
 -8.226171e-07
 -6.934809e-07
 -6.203687e-07
 -5.638177e-07
 -4.599869e-07
 -2.860086e-07
 -1.662453e-07
 -2.041876e-07
 -2.842293e-07
 -2.774235e-07
 -2.087166e-07
 -1.370499e-07
 -7.870672e-08
 -2.906184e-08
 1.642860e-08
 4.719497e-08
 1.947773e-08
 -1.044553e-07
 -2.380280e-07
 -2.448442e-07
 -1.267977e-07
 -2.101506e-08
 0.000000e+00
 0.000000e+00
 -5.044790e-06
 -4.882004e-06
 -2.818662e-06
 -1.434945e-06
 -1.753810e-06
 -1.698461e-06
 -1.604865e-06
 -1.510808e-06
 -1.396796e-06
 -1.253920e-06
 -1.101714e-06
 -9.788948e-07
 -9.059984e-07
 -8.692714e-07
 -8.472459e-07
 -8.298580e-07
 -8.176317e-07
 -8.180071e-07
 -8.514834e-07
 -9.941171e-07
 -2.030251e-06
 -6.705552e-07
 2.919889e-07
 -2.969450e-07
 -4.546118e-07
 -5.822197e-07
 -6.838315e-07
 -6.960041e-07
 -6.602529e-07
 -6.444493e-07
 -6.911091e-07
 -6.648225e-07
 -3.421382e-07
 -8.548893e-08
 -1.483595e-07
 -2.318487e-07
 -2.232220e-07
 -1.649894e-07
 -1.086348e-07
 -6.765113e-08
 -3.610618e-08
 -1.271147e-08
 -8.452275e-09
 -4.506644e-08
 -1.413700e-07
 -3.001368e-07
 -3.575763e-07
 -8.926472e-08
 1.253184e-07
 0.000000e+00
 0.000000e+00
 -4.446275e-06
 -3.141402e-06
 1.478827e-05
 -2.339444e-06
 -2.058191e-06
 -1.868986e-06
 -1.702067e-06
 -1.567552e-06
 -1.447298e-06
 -1.282032e-06
 -1.058334e-06
 -8.807626e-07
 -8.152652e-07
 -8.081812e-07
 -8.070840e-07
 -7.975642e-07
 -7.805455e-07
 -7.586966e-07
 -7.318756e-07
 -6.908676e-07
 -6.902547e-07
 1.680160e-05
 -6.232294e-07
 -5.677040e-07
 -5.771082e-07
 -5.994860e-07
 -6.207406e-07
 -6.183597e-07
 -6.006917e-07
 -6.052072e-07
 -7.232451e-07
 -1.751281e-06
 -4.119857e-07
 4.946394e-07
 -1.591821e-07
 -2.885259e-07
 -2.188345e-07
 -1.105842e-07
 -6.185050e-08
 -4.852475e-08
 -3.717069e-08
 -2.494008e-08
 -2.291219e-08
 -4.603119e-08
 -1.156533e-07
 -3.015710e-07
 -1.383602e-06
 -8.040409e-08
 7.886724e-07
 0.000000e+00
 0.000000e+00
 -1.608436e-06
 -1.531646e-06
 -2.402880e-06
 -3.576354e-06
 -2.355344e-06
 -2.017066e-06
 -1.762555e-06
 -1.599183e-06
 -1.549398e-06
 -1.398936e-06
 -9.587851e-07
 -6.417650e-07
 -6.717178e-07
 -7.487317e-07
 -7.772526e-07
 -7.728432e-07
 -7.478306e-07
 -7.033089e-07
 -6.220387e-07
 -4.297324e-07
 2.370063e-07
 -6.473067e-07
 -1.941363e-06
 -8.545366e-07
 -6.761509e-07
 -6.166520e-07
 -5.882444e-07
 -5.602503e-07
 -5.241189e-07
 -4.813748e-07
 -4.296202e-07
 -4.320524e-07
 1.703234e-05
 -4.582674e-07
 -5.226931e-07
 -5.482813e-07
 -2.436559e-07
 3.238061e-08
 1.700474e-08
 -3.379406e-08
 -4.089335e-08
 -2.739961e-08
 -1.257395e-08
 -5.076306e-09
 -3.394602e-09
 6.680073e-09
 -2.489598e-08
 1.743513e-05
 -2.135320e-08
 0.000000e+00
 0.000000e+00
 -1.240943e-06
 -1.818529e-06
 -2.182329e-06
 -2.416674e-06
 -2.350794e-06
 -2.138821e-06
 -1.727442e-06
 -1.492711e-06
 -1.617978e-06
 -2.392090e-06
 -7.925521e-07
 1.121995e-07
 -5.728837e-07
 -7.430305e-07
 -7.786725e-07
 -7.669503e-07
 -7.321720e-07
 -6.779220e-07
 -5.956332e-07
 -4.710885e-07
 -3.889302e-07
 -6.079548e-07
 -8.675415e-07
 -8.160715e-07
 -6.843630e-07
 -6.091168e-07
 -5.588355e-07
 -5.120116e-07
 -4.537993e-07
 -3.623350e-07
 -1.646341e-07
 4.983106e-07
 -4.068562e-07
 -1.758184e-06
 -8.384084e-07
 -1.718570e-06
 -3.220882e-07
 6.385223e-07
 4.523754e-08
 -6.721286e-08
 -6.359271e-08
 -2.936100e-08
 6.756840e-09
 4.337837e-08
 1.047681e-07
 2.734576e-07
 9.203712e-07
 2.959817e-08
 -1.234538e-06
 0.000000e+00
 0.000000e+00
 -1.861128e-06
 -2.134850e-06
 -2.139060e-06
 -2.128488e-06
 -2.151011e-06
 -3.046567e-06
 -1.606698e-06
 -7.162257e-07
 -2.292257e-06
 -1.072729e-06
 1.732075e-05
 -7.325831e-07
 -8.204578e-07
 -8.425666e-07
 -8.197632e-07
 -7.813224e-07
 -7.341188e-07
 -6.786785e-07
 -6.152822e-07
 -5.556177e-07
 -5.418012e-07
 -6.105942e-07
 -6.887817e-07
 -6.883754e-07
 -6.358695e-07
 -5.788609e-07
 -5.272262e-07
 -4.745511e-07
 -4.108971e-07
 -3.223610e-07
 -1.933863e-07
 -1.087700e-07
 -3.272053e-07
 -5.857561e-07
 -5.222951e-07
 -4.222304e-07
 1.710795e-05
 -3.072820e-07
 -2.371767e-07
 -1.911036e-07
 -1.101807e-07
 -2.896548e-08
 2.923181e-08
 7.387729e-08
 1.330005e-07
 2.341131e-07
 3.007133e-07
 8.267005e-08
 -1.437180e-07
 0.000000e+00
 0.000000e+00
 -3.802098e-06
 -2.525803e-06
 -2.093552e-06
 -1.863313e-06
 -1.662857e-06
 -1.513246e-06
 1.611552e-05
 -1.156993e-06
 -8.999780e-07
 1.725764e-05
 -1.053582e-06
 -2.290253e-06
 -1.188276e-06
 -9.761680e-07
 -8.738218e-07
 -8.035810e-07
 -7.441294e-07
 -6.887132e-07
 -6.374904e-07
 -5.982415e-07
 -5.846461e-07
 -5.995864e-07
 -6.182703e-07
 -6.128967e-07
 -5.828549e-07
 -5.414880e-07
 -4.963622e-07
 -4.474694e-07
 -3.916069e-07
 -3.268525e-07
 -2.632960e-07
 -2.406042e-07
 -2.890738e-07
 -3.151371e-07
 -1.561666e-07
 5.229015e-07
 -3.545526e-07
 -1.659266e-06
 -5.810176e-07
 -3.522493e-07
 -1.554200e-07
 1.536912e-09
 6.803809e-08
 9.025504e-08
 1.145200e-07
 1.438042e-07
 1.387005e-07
 6.398620e-08
 -6.784909e-09
 0.000000e+00
 0.000000e+00
 -3.917733e-06
 -2.355127e-06
 -1.888953e-06
 -1.584060e-06
 -1.211412e-06
 -3.754392e-07
 -1.085093e-06
 -2.103208e-06
 -2.402628e-07
 -8.798959e-07
 -2.344073e-06
 -1.496015e-06
 -1.246115e-06
 -1.029054e-06
 -9.021464e-07
 -8.168595e-07
 -7.510591e-07
 -6.958397e-07
 -6.492513e-07
 -6.137194e-07
 -5.926013e-07
 -5.840682e-07
 -5.782290e-07
 -5.643922e-07
 -5.394828e-07
 -5.065212e-07
 -4.687843e-07
 -4.274389e-07
 -3.826451e-07
 -3.363304e-07
 -2.957456e-07
 -2.721032e-07
 -2.627756e-07
 -2.319576e-07
 -1.386491e-07
 -7.066842e-08
 -3.078369e-07
 -6.125291e-07
 -6.600588e-07
 -5.411005e-07
 -1.630038e-07
 1.483565e-07
 1.466547e-07
 9.677963e-08
 8.335383e-08
 8.397608e-08
 7.377764e-08
 4.412506e-08
 1.410844e-08
 0.000000e+00
 0.000000e+00
 -1.343207e-06
 -1.660473e-06
 -1.558501e-06
 -1.364511e-06
 -1.053538e-06
 -7.835974e-07
 -8.678510e-07
 -9.907827e-07
 -8.526580e-07
 -9.721590e-07
 -1.262937e-06
 -1.273643e-06
 -1.132492e-06
 -9.988986e-07
 -8.931817e-07
 -8.126107e-07
 -7.484671e-07
 -6.950951e-07
 -6.502315e-07
 -6.138524e-07
 -5.862345e-07
 -5.656737e-07
 -5.478516e-07
 -5.280945e-07
 -5.040560e-07
 -4.758796e-07
 -4.446123e-07
 -4.111101e-07
 -3.761617e-07
 -3.413174e-07
 -3.093009e-07
 -2.820158e-07
 -2.558292e-07
 -2.218985e-07
 -1.842422e-07
 -1.867080e-07
 -2.772371e-07
 -4.070499e-07
 -5.675949e-07
 -1.573644e-06
 -1.888226e-07
 7.788945e-07
 1.870044e-07
 6.169344e-08
 3.820218e-08
 3.741232e-08
 3.470696e-08
 2.431574e-08
 1.112657e-08
 0.000000e+00
 0.000000e+00
 -6.914772e-07
 -1.096941e-06
 -1.296184e-06
 -1.293406e-06
 -9.356472e-07
 -6.371842e-07
 -7.037451e-07
 -8.216508e-07
 -8.717479e-07
 -9.485962e-07
 -1.044082e-06
 -1.065065e-06
 -1.012560e-06
 -9.348298e-07
 -8.589191e-07
 -7.925922e-07
 -7.356883e-07
 -6.862383e-07
 -6.427975e-07
 -6.048467e-07
 -5.722698e-07
 -5.444661e-07
 -5.198919e-07
 -4.965487e-07
 -4.728929e-07
 -4.482577e-07
 -4.226430e-07
 -3.963600e-07
 -3.698384e-07
 -3.434615e-07
 -3.171010e-07
 -2.894037e-07
 -2.581461e-07
 -2.237761e-07
 -1.951787e-07
 -1.887048e-07
 -2.090848e-07
 -2.301210e-07
 -2.140899e-07
 -2.154439e-07
 1.728279e-05
 -1.350929e-07
 -6.767008e-08
 -4.824614e-08
 -2.342972e-08
 -4.585424e-09
 5.345436e-09
 7.219055e-09
 4.372637e-09
 0.000000e+00
 0.000000e+00
 -4.159096e-07
 -7.448410e-07
 -1.049311e-06
 -2.161216e-06
 -8.432107e-07
 7.240432e-08
 -5.767421e-07
 -7.592142e-07
 -8.338050e-07
 -8.859612e-07
 -9.267235e-07
 -9.365925e-07
 -9.116381e-07
 -8.659732e-07
 -8.138802e-07
 -7.629631e-07
 -7.155891e-07
 -6.715504e-07
 -6.299530e-07
 -5.903737e-07
 -5.533421e-07
 -5.199388e-07
 -4.907960e-07
 -4.654824e-07
 -4.428229e-07
 -4.216605e-07
 -4.013597e-07
 -3.818503e-07
 -3.632984e-07
 -3.453629e-07
 -3.259911e-07
 -3.006940e-07
 -2.651258e-07
 -2.217741e-07
 -1.823355e-07
 -1.569584e-07
 -1.385616e-07
 -9.248268e-08
 7.180353e-08
 7.234691e-07
 -1.650474e-07
 -1.455221e-06
 -3.568492e-07
 -1.593669e-07
 -7.818725e-08
 -3.706680e-08
 -1.547533e-08
 -5.213592e-09
 -1.257975e-09
 0.000000e+00
 0.000000e+00
 -2.547651e-07
 -4.569165e-07
 -5.780805e-07
 -6.843372e-07
 1.673332e-05
 -7.513815e-07
 -7.450967e-07
 -7.820191e-07
 -8.068274e-07
 -8.288311e-07
 -8.447438e-07
 -8.464591e-07
 -8.309208e-07
 -8.022210e-07
 -7.667875e-07
 -7.293905e-07
 -6.920593e-07
 -6.545162e-07
 -6.152765e-07
 -5.734659e-07
 -5.306984e-07
 -4.909414e-07
 -4.577338e-07
 -4.317756e-07
 -4.113569e-07
 -3.943055e-07
 -3.793348e-07
 -3.663156e-07
 -3.558560e-07
 -3.482006e-07
 -3.406569e-07
 -3.234967e-07
 -2.819062e-07
 -2.157583e-07
 -1.522690e-07
 -1.137500e-07
 -8.922752e-08
 -4.764198e-08
 4.083269e-08
 9.836073e-08
 -1.321795e-07
 -3.908902e-07
 -3.291685e-07
 -1.837170e-07
 -9.907058e-08
 -5.146074e-08
 -2.534604e-08
 -1.155552e-08
 -4.364804e-09
 0.000000e+00
 0.000000e+00
 -1.520083e-07
 -2.511226e-07
 -2.058651e-07
 3.479568e-07
 -6.229291e-07
 -1.985387e-06
 -9.523632e-07
 -8.130465e-07
 -7.807319e-07
 -7.767771e-07
 -7.781237e-07
 -7.749951e-07
 -7.636879e-07
 -7.448307e-07
 -7.211651e-07
 -6.953545e-07
 -6.685171e-07
 -6.392678e-07
 -6.036484e-07
 -5.580052e-07
 -5.049588e-07
 -4.548177e-07
 -4.169764e-07
 -3.924799e-07
 -3.767050e-07
 -3.650791e-07
 -3.554962e-07
 -3.481989e-07
 -3.451968e-07
 -3.496626e-07
 -3.633727e-07
 -3.731729e-07
 -3.297254e-07
 -2.060574e-07
 -8.995176e-08
 -5.340749e-08
 -5.670260e-08
 -5.507715e-08
 -4.556028e-08
 -6.710344e-08
 -1.540566e-07
 -2.315340e-07
 -2.161073e-07
 -1.469945e-07
 -8.479360e-08
 -4.534919e-08
 -2.342830e-08
 -1.161169e-08
 -4.804207e-09
 0.000000e+00
 0.000000e+00
 -9.866939e-08
 -1.650208e-07
 -1.716944e-07
 -1.992649e-07
 -5.081529e-07
 -8.411988e-07
 -8.496461e-07
 -7.666270e-07
 -7.323946e-07
 -7.209782e-07
 -7.169175e-07
 -7.124710e-07
 -7.043527e-07
 -6.922097e-07
 -6.774189e-07
 -6.619152e-07
 -6.468729e-07
 -6.303013e-07