<VTKFile type="UnstructuredGrid"  version="0.1"   >
<UnstructuredGrid>  
<Piece  NumberOfPoints="     2601"  NumberOfCells="     5000">  
<Points>  
<DataArray  type="Float64"  NumberOfComponents="3"  format="ascii">  
 0.000000 0.000000 0.000000 
 0.020000 0.000000 0.000000 
 0.040000 0.000000 0.000000 
 0.060000 0.000000 0.000000 
 0.080000 0.000000 0.000000 
 0.100000 0.000000 0.000000 
 0.120000 0.000000 0.000000 
 0.140000 0.000000 0.000000 
 0.160000 0.000000 0.000000 
 0.180000 0.000000 0.000000 
 0.200000 0.000000 0.000000 
 0.220000 0.000000 0.000000 
 0.240000 0.000000 0.000000 
 0.260000 0.000000 0.000000 
 0.280000 0.000000 0.000000 
 0.300000 0.000000 0.000000 
 0.320000 0.000000 0.000000 
 0.340000 0.000000 0.000000 
 0.360000 0.000000 0.000000 
 0.380000 0.000000 0.000000 
 0.400000 0.000000 0.000000 
 0.420000 0.000000 0.000000 
 0.440000 0.000000 0.000000 
 0.460000 0.000000 0.000000 
 0.480000 0.000000 0.000000 
 0.500000 0.000000 0.000000 
 0.520000 0.000000 0.000000 
 0.540000 0.000000 0.000000 
 0.560000 0.000000 0.000000 
 0.580000 0.000000 0.000000 
 0.600000 0.000000 0.000000 
 0.620000 0.000000 0.000000 
 0.640000 0.000000 0.000000 
 0.660000 0.000000 0.000000 
 0.680000 0.000000 0.000000 
 0.700000 0.000000 0.000000 
 0.720000 0.000000 0.000000 
 0.740000 0.000000 0.000000 
 0.760000 0.000000 0.000000 
 0.780000 0.000000 0.000000 
 0.800000 0.000000 0.000000 
 0.820000 0.000000 0.000000 
 0.840000 0.000000 0.000000 
 0.860000 0.000000 0.000000 
 0.880000 0.000000 0.000000 
 0.900000 0.000000 0.000000 
 0.920000 0.000000 0.000000 
 0.940000 0.000000 0.000000 
 0.960000 0.000000 0.000000 
 0.980000 0.000000 0.000000 
 1.000000 0.000000 0.000000 
 0.000000 0.020000 0.000000 
 0.020000 0.020000 0.000000 
 0.040000 0.020000 0.000000 
 0.060000 0.020000 0.000000 
 0.080000 0.020000 0.000000 
 0.100000 0.020000 0.000000 
 0.120000 0.020000 0.000000 
 0.140000 0.020000 0.000000 
 0.160000 0.020000 0.000000 
 0.180000 0.020000 0.000000 
 0.200000 0.020000 0.000000 
 0.220000 0.020000 0.000000 
 0.240000 0.020000 0.000000 
 0.260000 0.020000 0.000000 
 0.280000 0.020000 0.000000 
 0.300000 0.020000 0.000000 
 0.320000 0.020000 0.000000 
 0.340000 0.020000 0.000000 
 0.360000 0.020000 0.000000 
 0.380000 0.020000 0.000000 
 0.400000 0.020000 0.000000 
 0.420000 0.020000 0.000000 
 0.440000 0.020000 0.000000 
 0.460000 0.020000 0.000000 
 0.480000 0.020000 0.000000 
 0.500000 0.020000 0.000000 
 0.520000 0.020000 0.000000 
 0.540000 0.020000 0.000000 
 0.560000 0.020000 0.000000 
 0.580000 0.020000 0.000000 
 0.600000 0.020000 0.000000 
 0.620000 0.020000 0.000000 
 0.640000 0.020000 0.000000 
 0.660000 0.020000 0.000000 
 0.680000 0.020000 0.000000 
 0.700000 0.020000 0.000000 
 0.720000 0.020000 0.000000 
 0.740000 0.020000 0.000000 
 0.760000 0.020000 0.000000 
 0.780000 0.020000 0.000000 
 0.800000 0.020000 0.000000 
 0.820000 0.020000 0.000000 
 0.840000 0.020000 0.000000 
 0.860000 0.020000 0.000000 
 0.880000 0.020000 0.000000 
 0.900000 0.020000 0.000000 
 0.920000 0.020000 0.000000 
 0.940000 0.020000 0.000000 
 0.960000 0.020000 0.000000 
 0.980000 0.020000 0.000000 
 1.000000 0.020000 0.000000 
 0.000000 0.040000 0.000000 
 0.020000 0.040000 0.000000 
 0.040000 0.040000 0.000000 
 0.060000 0.040000 0.000000 
 0.080000 0.040000 0.000000 
 0.100000 0.040000 0.000000 
 0.120000 0.040000 0.000000 
 0.140000 0.040000 0.000000 
 0.160000 0.040000 0.000000 
 0.180000 0.040000 0.000000 
 0.200000 0.040000 0.000000 
 0.220000 0.040000 0.000000 
 0.240000 0.040000 0.000000 
 0.260000 0.040000 0.000000 
 0.280000 0.040000 0.000000 
 0.300000 0.040000 0.000000 
 0.320000 0.040000 0.000000 
 0.340000 0.040000 0.000000 
 0.360000 0.040000 0.000000 
 0.380000 0.040000 0.000000 
 0.400000 0.040000 0.000000 
 0.420000 0.040000 0.000000 
 0.440000 0.040000 0.000000 
 0.460000 0.040000 0.000000 
 0.480000 0.040000 0.000000 
 0.500000 0.040000 0.000000 
 0.520000 0.040000 0.000000 
 0.540000 0.040000 0.000000 
 0.560000 0.040000 0.000000 
 0.580000 0.040000 0.000000 
 0.600000 0.040000 0.000000 
 0.620000 0.040000 0.000000 
 0.640000 0.040000 0.000000 
 0.660000 0.040000 0.000000 
 0.680000 0.040000 0.000000 
 0.700000 0.040000 0.000000 
 0.720000 0.040000 0.000000 
 0.740000 0.040000 0.000000 
 0.760000 0.040000 0.000000 
 0.780000 0.040000 0.000000 
 0.800000 0.040000 0.000000 
 0.820000 0.040000 0.000000 
 0.840000 0.040000 0.000000 
 0.860000 0.040000 0.000000 
 0.880000 0.040000 0.000000 
 0.900000 0.040000 0.000000 
 0.920000 0.040000 0.000000 
 0.940000 0.040000 0.000000 
 0.960000 0.040000 0.000000 
 0.980000 0.040000 0.000000 
 1.000000 0.040000 0.000000 
 0.000000 0.060000 0.000000 
 0.020000 0.060000 0.000000 
 0.040000 0.060000 0.000000 
 0.060000 0.060000 0.000000 
 0.080000 0.060000 0.000000 
 0.100000 0.060000 0.000000 
 0.120000 0.060000 0.000000 
 0.140000 0.060000 0.000000 
 0.160000 0.060000 0.000000 
 0.180000 0.060000 0.000000 
 0.200000 0.060000 0.000000 
 0.220000 0.060000 0.000000 
 0.240000 0.060000 0.000000 
 0.260000 0.060000 0.000000 
 0.280000 0.060000 0.000000 
 0.300000 0.060000 0.000000 
 0.320000 0.060000 0.000000 
 0.340000 0.060000 0.000000 
 0.360000 0.060000 0.000000 
 0.380000 0.060000 0.000000 
 0.400000 0.060000 0.000000 
 0.420000 0.060000 0.000000 
 0.440000 0.060000 0.000000 
 0.460000 0.060000 0.000000 
 0.480000 0.060000 0.000000 
 0.500000 0.060000 0.000000 
 0.520000 0.060000 0.000000 
 0.540000 0.060000 0.000000 
 0.560000 0.060000 0.000000 
 0.580000 0.060000 0.000000 
 0.600000 0.060000 0.000000 
 0.620000 0.060000 0.000000 
 0.640000 0.060000 0.000000 
 0.660000 0.060000 0.000000 
 0.680000 0.060000 0.000000 
 0.700000 0.060000 0.000000 
 0.720000 0.060000 0.000000 
 0.740000 0.060000 0.000000 
 0.760000 0.060000 0.000000 
 0.780000 0.060000 0.000000 
 0.800000 0.060000 0.000000 
 0.820000 0.060000 0.000000 
 0.840000 0.060000 0.000000 
 0.860000 0.060000 0.000000 
 0.880000 0.060000 0.000000 
 0.900000 0.060000 0.000000 
 0.920000 0.060000 0.000000 
 0.940000 0.060000 0.000000 
 0.960000 0.060000 0.000000 
 0.980000 0.060000 0.000000 
 1.000000 0.060000 0.000000 
 0.000000 0.080000 0.000000 
 0.020000 0.080000 0.000000 
 0.040000 0.080000 0.000000 
 0.060000 0.080000 0.000000 
 0.080000 0.080000 0.000000 
 0.100000 0.080000 0.000000 
 0.120000 0.080000 0.000000 
 0.140000 0.080000 0.000000 
 0.160000 0.080000 0.000000 
 0.180000 0.080000 0.000000 
 0.200000 0.080000 0.000000 
 0.220000 0.080000 0.000000 
 0.240000 0.080000 0.000000 
 0.260000 0.080000 0.000000 
 0.280000 0.080000 0.000000 
 0.300000 0.080000 0.000000 
 0.320000 0.080000 0.000000 
 0.340000 0.080000 0.000000 
 0.360000 0.080000 0.000000 
 0.380000 0.080000 0.000000 
 0.400000 0.080000 0.000000 
 0.420000 0.080000 0.000000 
 0.440000 0.080000 0.000000 
 0.460000 0.080000 0.000000 
 0.480000 0.080000 0.000000 
 0.500000 0.080000 0.000000 
 0.520000 0.080000 0.000000 
 0.540000 0.080000 0.000000 
 0.560000 0.080000 0.000000 
 0.580000 0.080000 0.000000 
 0.600000 0.080000 0.000000 
 0.620000 0.080000 0.000000 
 0.640000 0.080000 0.000000 
 0.660000 0.080000 0.000000 
 0.680000 0.080000 0.000000 
 0.700000 0.080000 0.000000 
 0.720000 0.080000 0.000000 
 0.740000 0.080000 0.000000 
 0.760000 0.080000 0.000000 
 0.780000 0.080000 0.000000 
 0.800000 0.080000 0.000000 
 0.820000 0.080000 0.000000 
 0.840000 0.080000 0.000000 
 0.860000 0.080000 0.000000 
 0.880000 0.080000 0.000000 
 0.900000 0.080000 0.000000 
 0.920000 0.080000 0.000000 
 0.940000 0.080000 0.000000 
 0.960000 0.080000 0.000000 
 0.980000 0.080000 0.000000 
 1.000000 0.080000 0.000000 
 0.000000 0.100000 0.000000 
 0.020000 0.100000 0.000000 
 0.040000 0.100000 0.000000 
 0.060000 0.100000 0.000000 
 0.080000 0.100000 0.000000 
 0.100000 0.100000 0.000000 
 0.120000 0.100000 0.000000 
 0.140000 0.100000 0.000000 
 0.160000 0.100000 0.000000 
 0.180000 0.100000 0.000000 
 0.200000 0.100000 0.000000 
 0.220000 0.100000 0.000000 
 0.240000 0.100000 0.000000 
 0.260000 0.100000 0.000000 
 0.280000 0.100000 0.000000 
 0.300000 0.100000 0.000000 
 0.320000 0.100000 0.000000 
 0.340000 0.100000 0.000000 
 0.360000 0.100000 0.000000 
 0.380000 0.100000 0.000000 
 0.400000 0.100000 0.000000 
 0.420000 0.100000 0.000000 
 0.440000 0.100000 0.000000 
 0.460000 0.100000 0.000000 
 0.480000 0.100000 0.000000 
 0.500000 0.100000 0.000000 
 0.520000 0.100000 0.000000 
 0.540000 0.100000 0.000000 
 0.560000 0.100000 0.000000 
 0.580000 0.100000 0.000000 
 0.600000 0.100000 0.000000 
 0.620000 0.100000 0.000000 
 0.640000 0.100000 0.000000 
 0.660000 0.100000 0.000000 
 0.680000 0.100000 0.000000 
 0.700000 0.100000 0.000000 
 0.720000 0.100000 0.000000 
 0.740000 0.100000 0.000000 
 0.760000 0.100000 0.000000 
 0.780000 0.100000 0.000000 
 0.800000 0.100000 0.000000 
 0.820000 0.100000 0.000000 
 0.840000 0.100000 0.000000 
 0.860000 0.100000 0.000000 
 0.880000 0.100000 0.000000 
 0.900000 0.100000 0.000000 
 0.920000 0.100000 0.000000 
 0.940000 0.100000 0.000000 
 0.960000 0.100000 0.000000 
 0.980000 0.100000 0.000000 
 1.000000 0.100000 0.000000 
 0.000000 0.120000 0.000000 
 0.020000 0.120000 0.000000 
 0.040000 0.120000 0.000000 
 0.060000 0.120000 0.000000 
 0.080000 0.120000 0.000000 
 0.100000 0.120000 0.000000 
 0.120000 0.120000 0.000000 
 0.140000 0.120000 0.000000 
 0.160000 0.120000 0.000000 
 0.180000 0.120000 0.000000 
 0.200000 0.120000 0.000000 
 0.220000 0.120000 0.000000 
 0.240000 0.120000 0.000000 
 0.260000 0.120000 0.000000 
 0.280000 0.120000 0.000000 
 0.300000 0.120000 0.000000 
 0.320000 0.120000 0.000000 
 0.340000 0.120000 0.000000 
 0.360000 0.120000 0.000000 
 0.380000 0.120000 0.000000 
 0.400000 0.120000 0.000000 
 0.420000 0.120000 0.000000 
 0.440000 0.120000 0.000000 
 0.460000 0.120000 0.000000 
 0.480000 0.120000 0.000000 
 0.500000 0.120000 0.000000 
 0.520000 0.120000 0.000000 
 0.540000 0.120000 0.000000 
 0.560000 0.120000 0.000000 
 0.580000 0.120000 0.000000 
 0.600000 0.120000 0.000000 
[...]
<PointData  Scalars="U"> 
<DataArray  type="Float64"  Name="U"  format="ascii"> 
 0.000000e+00
 0.000000e+00
 0.000000e+00
 0.000000e+00
 0.000000e+00
 0.000000e+00
 0.000000e+00
 0.000000e+00
 0.000000e+00
 0.000000e+00
 0.000000e+00
 0.000000e+00
 0.000000e+00
 0.000000e+00
 0.000000e+00
 0.000000e+00
 0.000000e+00
 0.000000e+00
 0.000000e+00
 0.000000e+00
 0.000000e+00
 0.000000e+00
 0.000000e+00
 0.000000e+00
 0.000000e+00
 0.000000e+00
 0.000000e+00
 0.000000e+00
 0.000000e+00
 0.000000e+00
 0.000000e+00
 0.000000e+00
 0.000000e+00
 0.000000e+00
 0.000000e+00
 0.000000e+00
 0.000000e+00
 0.000000e+00
 0.000000e+00
 0.000000e+00
 0.000000e+00
 0.000000e+00
 0.000000e+00
 0.000000e+00
 0.000000e+00
 0.000000e+00
 0.000000e+00
 0.000000e+00
 0.000000e+00
 0.000000e+00
 0.000000e+00
 0.000000e+00
 2.398893e-08
 3.831444e-08
 3.924373e-08
 3.013978e-08
 1.670827e-08
 2.423326e-09
 -1.298867e-08
 -3.554218e-08
 -8.887286e-08
 -2.724269e-07
 -1.439032e-06
 -3.656219e-07
 1.415744e-07
 -1.354379e-06
 -3.533619e-06
 -3.711381e-06
 -1.148022e-06
 -5.118826e-07
 -2.760820e-07
 -1.734480e-07
 -1.212774e-07
 -9.087415e-08
 -7.141603e-08
 -5.789301e-08
 -4.606326e-08
 -2.997957e-08
 -2.703142e-09
 3.999486e-08
 1.004453e-07
 1.852847e-07
 1.856260e-08
 1.611297e-05
 -2.950714e-07
 6.761585e-07
 1.021336e-07
 -2.024122e-08
 -5.265079e-08
 -6.346351e-08
 -6.768756e-08
 -6.736890e-08
 -6.238136e-08
 -5.288845e-08
 -3.790448e-08
 -1.564771e-08
 1.126566e-08
 3.344198e-08
 4.204445e-08
 3.581765e-08
 1.857872e-08
 0.000000e+00
 0.000000e+00
 5.877359e-08
 9.142643e-08
 8.887886e-08
 6.411581e-08
 3.364549e-08
 5.215192e-09
 -2.091814e-08
 -4.884064e-08
 -8.711669e-08
 -1.482736e-07
 -3.233729e-07
 1.687998e-05
 -9.858402e-07
 -1.558466e-06
 -2.133030e-06
 -1.985421e-06
 -1.259667e-06
 -7.099737e-07
 -4.416730e-07
 -3.036509e-07
 -2.232469e-07
 -1.716212e-07
 -1.369774e-07
 -1.137213e-07
 -9.608055e-08
 -7.173137e-08
 -2.151979e-08
 6.368651e-08
 1.757022e-07
 3.412930e-07
 8.554545e-07
 -2.515615e-07
 1.601631e-05
 -2.049810e-07
 -6.813506e-08
 -1.034766e-07
 -1.207138e-07
 -1.318650e-07
 -1.397429e-07
 -1.395847e-07
 -1.290208e-07
 -1.109298e-07
 -8.388545e-08
 -3.747340e-08
 2.738015e-08
 8.208899e-08
 9.986296e-08
 8.230960e-08
 4.475904e-08
 0.000000e+00
 0.000000e+00
 1.227649e-07
 1.844364e-07
 1.609178e-07
 1.018715e-07
 4.730368e-08
 5.103485e-09
 -2.773608e-08
 -5.294670e-08
 -6.112036e-08
 7.011982e-09
 4.938371e-07
 -6.491516e-07
 -2.300739e-06
 -1.663733e-06
 -1.761942e-06
 -1.406644e-06
 -8.886261e-07
 -6.352489e-07
 -4.928600e-07
 -3.826144e-07
 -2.988692e-07
 -2.363254e-07
 -1.911671e-07
 -1.627523e-07
 -1.509664e-07
 -1.410568e-07
 -8.034753e-08
 6.502794e-08
 2.195148e-07
 3.239778e-07
 3.256610e-07
 -4.156345e-07
 -3.568099e-07
 -7.802159e-07
 -2.596859e-07
 -2.076961e-07
 -1.921851e-07
 -2.021647e-07
 -2.204371e-07
 -2.235647e-07
 -2.023976e-07
 -1.754210e-07
 -1.510502e-07
 -8.432040e-08
 5.411461e-08
 1.741457e-07
 1.950321e-07
 1.479535e-07
 7.696410e-08
 0.000000e+00
 0.000000e+00
 2.524317e-07
 3.813040e-07
 2.629921e-07
 1.287944e-07
 4.738708e-08
 -4.082228e-09
 -4.084694e-08
 -6.858081e-08
 -8.494056e-08
 -8.474433e-08
 -1.631252e-07
 -5.890075e-07
 -1.113660e-06
 -1.431097e-06
 -2.499817e-06
 -1.117623e-06
 -5.925983e-08
 -5.162251e-07
 -5.136389e-07
 -4.346495e-07
 -3.536111e-07
 -2.842709e-07
 -2.289592e-07
 -1.936711e-07
 -1.949245e-07
 -2.609479e-07
 -2.526391e-07
 6.279339e-08
 3.364268e-07
 3.179841e-07
 2.941603e-07
 2.070050e-07
 1.732420e-05
 -4.653241e-07
 -3.961626e-07
 -2.777641e-07
 -2.364634e-07
 -2.624453e-07
 -3.186434e-07
 -3.383834e-07
 -2.806761e-07
 -2.243238e-07
 -2.600313e-07
 -2.336437e-07
 1.023393e-07
 3.931416e-07
 3.558217e-07
 2.319661e-07
 1.135390e-07
 0.000000e+00
 0.000000e+00
 2.542178e-07
 9.977171e-07
 2.978708e-07
 1.002683e-07
 1.972051e-08
 -2.644724e-08
 -6.171821e-08
 -9.417913e-08
 -1.293881e-07
 -1.833628e-07
 -3.005488e-07
 -5.151469e-07
 -7.416991e-07
 -8.616570e-07
 -9.287599e-07
 1.656005e-05
 -8.171173e-07
 -6.783241e-07
 -5.800126e-07
 -4.816006e-07
 -3.953890e-07
 -3.189679e-07
 -2.485379e-07
 -1.905513e-07
 -1.740020e-07
 -2.857800e-07
 -1.316040e-06
 2.052965e-08
 9.220263e-07
 2.297266e-07
 1.553144e-07
 8.879455e-07
 -1.343120e-08
 -1.527115e-06
 -4.927282e-07
 -2.595486e-07
 -2.112005e-07
 -2.854779e-07
 -4.540863e-07
 -5.602519e-07
 -3.582034e-07
 -1.610509e-07
 -2.661090e-07
 -1.279326e-06
 1.088575e-07
 1.113073e-06
 5.233104e-07
 3.074616e-07
 1.449112e-07
 0.000000e+00
 0.000000e+00
 1.742979e-05
 -1.670550e-08
 9.044635e-09
 -1.606572e-08
 -3.533797e-08
 -5.771689e-08
 -8.495964e-08
 -1.182525e-07
 -1.610769e-07
 -2.219473e-07
 -3.115997e-07
 -4.223387e-07
 -5.001770e-07
 -4.289772e-07
 1.693133e-07
 -7.357345e-07
 -2.012257e-06
 -8.802776e-07
 -6.401286e-07
 -5.143324e-07
 -4.270988e-07
 -3.494131e-07
 -2.592455e-07
 -1.525060e-07
 -5.302912e-08
 2.422481e-08
 2.538779e-08
 1.748980e-05
 4.504376e-10
 -1.119142e-07
 -1.170148e-06
 5.980892e-08
 5.092382e-07
 -5.138694e-07
 -3.715028e-07
 -4.695660e-08
 -7.224591e-08
 -2.218999e-07
 -4.836778e-07
 -1.666793e-06
 -5.188421e-07
 3.153838e-07
 -2.845900e-08
 6.920735e-08
 1.755305e-05
 3.252490e-07
 5.146817e-07
 3.517002e-07
 1.576388e-07
 0.000000e+00
 0.000000e+00
 -2.724950e-07
 -1.428637e-06
 -3.120329e-07
 -1.340556e-07
 -8.655003e-08
 -8.407638e-08
 -1.025052e-07
 -1.337189e-07
 -1.756996e-07
 -2.291276e-07
 -2.926410e-07
 -3.544530e-07
 -3.863777e-07
 -3.547131e-07
 -3.337723e-07
 -5.817739e-07
 -8.430461e-07
 -7.737185e-07
 -6.143302e-07
 -5.131171e-07
 -4.491355e-07
 -3.952105e-07
 -2.931087e-07
 -1.059181e-07
 1.005044e-07
 3.287825e-07
 9.792562e-07
 6.861151e-08
 -1.249245e-06
 -1.791784e-07
 -8.978243e-08
 1.727150e-05
 -5.167500e-07
 -1.677271e-06
 -3.212079e-07
 6.995937e-07
 1.008191e-07
 -8.253373e-08
 -1.777896e-07
 -3.296840e-07
 1.689071e-05
 -1.716901e-06
 -2.577085e-07
 1.478337e-06
 -7.619501e-07
 -8.832815e-07
 9.446853e-07
 3.432673e-07
 1.289001e-07
 0.000000e+00
 0.000000e+00
 -1.841838e-07
 -3.677409e-07
 -2.848250e-07
 -1.529218e-07
 -9.971204e-08
 -9.156809e-08
 -1.081571e-07
 -1.389184e-07
 -1.786817e-07
 -2.244534e-07
 -2.722287e-07
 -3.144452e-07
 -3.418444e-07
 -3.570432e-07
 -3.968715e-07
 -4.975107e-07
 -5.887425e-07
 -5.881002e-07
 -5.302265e-07
 -4.751311e-07
 -4.531723e-07
 -4.894386e-07
 -4.403094e-07
 -6.808275e-08
 2.869950e-07
 3.791299e-07
 3.838352e-07
 1.321722e-07
 -1.120277e-07
 6.029569e-08
 7.607399e-07
 -2.021781e-07
 -1.674130e-06
 -7.294597e-07
 1.714945e-05
 -1.623902e-09
 2.871497e-08
 -7.253583e-09
 1.010300e-07
 6.862844e-07
 -2.884931e-07
 -1.771715e-06
 1.579111e-05
 -3.004403e-08
 1.006354e-06
 1.777876e-05
 1.133038e-07
 8.610917e-08
 3.414229e-08
 0.000000e+00
 0.000000e+00
 -9.348130e-08
 -1.535046e-07
 -1.388739e-07
 -9.402438e-08
 -7.051184e-08
 -7.587726e-08
 -1.005038e-07
 -1.354862e-07
 -1.754847e-07
 -2.170765e-07
 -2.567850e-07
 -2.906176e-07
 -3.165259e-07
 -3.395359e-07
 -3.723286e-07
 -4.187877e-07
 -4.563648e-07
 -4.604824e-07
 -4.355837e-07
 -4.046311e-07
 -3.989841e-07
 -4.997301e-07
 -1.493854e-06
 -9.405977e-08
 9.046388e-07
 3.463347e-07
 2.144083e-07
 1.131096e-07
 5.157514e-08
 1.110441e-07
 1.710541e-07
 -7.946229e-08
 -3.893576e-07
 -8.130648e-07
 -3.018180e-07
 -6.371229e-07
 -1.394871e-07
 -4.878912e-08
 7.769749e-08
 1.658517e-07
 6.920685e-09
 3.620813e-07
 -3.320553e-07
 1.526469e-05
 7.555452e-07
 7.980875e-07
 -1.167562e-06
 -2.266434e-07
 -7.345383e-08
 0.000000e+00
 0.000000e+00
 -2.835553e-08
 -3.770918e-08
 -2.150656e-08
 -3.664118e-09
 -1.055725e-08
 -4.139892e-08
 -8.318822e-08
 -1.273562e-07
 -1.706442e-07
 -2.114119e-07
 -2.474355e-07
 -2.759568e-07
 -2.959913e-07
 -3.111169e-07
 -3.279524e-07
 -3.483110e-07
 -3.641264e-07
 -3.648189e-07
 -3.470822e-07
 -3.139348e-07
 -2.676060e-07
 -2.006201e-07
 -1.685939e-07
 1.735850e-05
 -3.076810e-08
 5.588605e-08
 7.037994e-08
 6.634018e-08
 6.202230e-08
 7.610136e-08
 7.404152e-08
 2.140995e-08
 1.305657e-08
 4.146395e-09
 1.724961e-05
 -4.382686e-07
 -3.121140e-07
 -1.320189e-07
 1.083510e-08
 9.122721e-08
 4.514297e-08
 -8.390482e-07
 9.374615e-07
 7.450050e-07
 1.633844e-05
 -3.464652e-07
 -4.108074e-07
 -2.987341e-07
 -1.216118e-07
 0.000000e+00
 0.000000e+00
 1.645147e-08
 4.534998e-08
 9.378690e-08
 1.178890e-07
 7.511322e-08
 2.714144e-09
 -6.444149e-08
 -1.203133e-07
 -1.681663e-07
 -2.103320e-07
 -2.458495e-07
 -2.706700e-07
 -2.811184e-07
 -2.801303e-07
 -2.779245e-07
 -2.818710e-07
 -2.886513e-07
 -2.888037e-07
 -2.737984e-07
 -2.351836e-07
 -1.523180e-07
 5.085353e-08
 7.397256e-07
 -1.106195e-07
 -1.364315e-06
 -2.425277e-07
 -4.401940e-08
 2.022158e-08
 4.190569e-08
 5.238123e-08
 5.953585e-08
 8.446238e-08
 2.185740e-07
 8.167719e-07
 -1.766491e-07
 -1.557274e-06
 -4.531659e-07
 -1.806649e-07
 -2.491038e-09
 1.426454e-07
 2.845164e-07
 3.911501e-07
 1.798298e-05
 8.371299e-07
 -3.506108e-07
 -1.678250e-06
 -5.232440e-07
 -2.653228e-07
 -1.128798e-07
 0.000000e+00
 0.000000e+00
 5.065618e-08
 9.613611e-08
 2.315443e-07
 3.278683e-07
 1.858826e-07
 3.574507e-08
 -5.792582e-08
 -1.209668e-07
 -1.707847e-07
 -2.152937e-07
 -2.548909e-07
 -2.810140e-07
 -2.793278e-07
 -2.498035e-07
 -2.194812e-07
 -2.115190e-07
 -2.202363e-07
 -2.282278e-07
 -2.226435e-07
 -1.941351e-07
 -1.295955e-07
 -1.154454e-08
 8.189468e-08
 -9.929855e-08
 -3.000410e-07
 -1.989059e-07
 -5.137294e-08
 9.488099e-09
 2.854393e-08
 3.350806e-08
 3.881303e-08
 6.090504e-08
 1.216372e-07
 1.413057e-07
 -1.317101e-07
 -4.164411e-07
 -3.465022e-07
 -1.570360e-07
 1.332973e-08
 2.034259e-07
 4.768857e-07
 1.178093e-06
 2.706966e-07
 -1.170276e-06
 -4.657177e-07
 -5.335740e-07
 -3.446698e-07
 -1.565747e-07
 -6.363704e-08
 0.000000e+00
 0.000000e+00
 9.578218e-09
 -3.542229e-07
 2.429286e-07
 9.456568e-07
 2.216461e-07
 9.902117e-09
 -7.970869e-08
 -1.333317e-07
 -1.775979e-07
 -2.236191e-07
 -2.757525e-07
 -3.215572e-07
 -3.117769e-07
 -2.193465e-07
 -1.321078e-07
 -1.228563e-07
 -1.539176e-07
 -1.819320e-07
 -1.937267e-07
 -1.873984e-07
 -1.635753e-07
 -1.338888e-07
 -1.317787e-07
 -1.568665e-07
 -1.204063e-07
 -2.576886e-08
 2.946613e-08
 3.650038e-08
 2.683779e-08
 1.481681e-08
 3.661855e-09
 -5.843067e-09
 -1.994879e-08
 -6.599153e-08
 -1.586923e-07
 -2.191352e-07
 -1.884957e-07
 -1.124156e-07
 8.444491e-09
 2.076564e-07
 4.159799e-07
 4.682027e-07
 1.173100e-07
 -3.816308e-07
 -5.304366e-07
 -2.520150e-07
 2.875436e-08
 4.074491e-08
 7.413771e-09
 0.000000e+00
 0.000000e+00
 1.742710e-05
 -6.536479e-08
 1.740646e-05
 -8.450504e-08
 -7.584149e-08
 -1.085866e-07
 -1.304566e-07
 -1.531176e-07
 -1.819021e-07
 -2.240300e-07
 -2.941080e-07
 -4.180110e-07
 -4.566000e-07
 -1.793831e-07
 6.076428e-08
 2.228100e-09
 -9.690682e-08
 -1.531077e-07
 -1.829346e-07
 -1.994284e-07
 -2.093330e-07
 -2.255349e-07
 -2.910082e-07
 -2.997213e-07
 -2.335640e-08
 2.139305e-07
 1.630555e-07
 7.515344e-08
 2.599915e-08
 -4.834854e-09
 -3.371137e-08
 -7.264275e-08
 -1.315016e-07
 -2.017478e-07
 -2.219233e-07
 -1.419229e-07
 -6.035992e-08
 -1.008612e-07
 -1.029868e-07
 2.010263e-07
 4.503926e-07
 3.245031e-07
 2.253486e-08
 -3.386661e-07
 -1.438523e-06
 -8.133569e-08
 8.416440e-07
 2.037554e-07
 4.816581e-08
 0.000000e+00
 0.000000e+00
 -7.329148e-08
 -5.874992e-07
 -3.872079e-07
 -1.531380e-06
 -4.137320e-07
 -2.336313e-07
 -1.798276e-07
 -1.671093e-07
 -1.740188e-07
 -1.989240e-07
 -2.590182e-07
 -4.308126e-07
 -1.501361e-06
 -1.848223e-07
 7.242684e-07
 8.228837e-08
 -8.683930e-08
 -1.490907e-07
 -1.842136e-07
 -2.183662e-07
 -2.549237e-07
 -2.731576e-07
 -3.308703e-07
 -1.304630e-06
 2.540883e-08
 9.099580e-07
 2.485880e-07
 7.186867e-08
 8.482034e-09
 -2.575642e-08
 -6.107144e-08
 -1.178959e-07
 -2.196887e-07
 -3.841892e-07
 -4.222028e-07
 -7.088684e-08
 2.201531e-07
 3.974609e-08
 -1.113262e-06
 1.572213e-07
 1.026896e-06
 3.011526e-07
 -3.925445e-08
 -1.925977e-07
 -2.673939e-08
 1.763116e-05
 1.059903e-07
 5.100196e-08
 6.723171e-09
 0.000000e+00
 0.000000e+00
 -6.026646e-08
 -1.844621e-07
 -3.486416e-07
 -4.989325e-07
 -4.054132e-07
 -2.642174e-07
 -1.954613e-07
 -1.639960e-07
 -1.505257e-07
 -1.453879e-07
 -1.421254e-07
 -1.290551e-07
 -1.603038e-07
 1.729605e-05
 -1.652627e-07
 -1.387293e-07
 -1.565391e-07
 -1.661845e-07
 -1.840524e-07
 -2.277766e-07
 -3.256341e-07
 -3.397709e-07
 -3.277642e-08
 1.872447e-07
 1.759295e-05
 4.036951e-08
 1.998893e-08
 -1.717714e-08
 -3.185570e-08
 -4.452355e-08
 -6.776933e-08
 -1.188955e-07
 -2.357429e-07
 -5.231702e-07
 -1.627378e-06
 -2.637121e-08
 1.139966e-06
 4.783559e-07
 2.140924e-07
 1.759061e-05
 9.516819e-08
 7.269770e-08
 -8.441180e-08
 -1.030336e-06
 8.884285e-07
 8.616913e-07
 -1.106836e-06
 -1.988409e-07
 -6.678055e-08
 0.000000e+00
 0.000000e+00
 -6.735592e-08
 -1.507256e-07
 -2.395211e-07
 -2.960652e-07
 -2.788533e-07
 -2.242470e-07
 -1.769230e-07
 -1.443833e-07
 -1.192325e-07
 -8.955720e-08
 -3.095886e-08
 1.344655e-07
 7.720081e-07
 -1.421336e-07
 -1.463860e-06
 -3.981623e-07
 -2.307850e-07
 -1.756644e-07
 -1.604649e-07
 -1.833684e-07
 -3.102448e-07
 -1.306926e-06
 1.879301e-07
 1.744384e-06
 1.960468e-07
 -1.286981e-06
 -2.729875e-07
 -1.235726e-07
 -7.334274e-08
 -5.340817e-08
 -4.938034e-08
 -6.284287e-08
 -1.107644e-07
 -2.598547e-07
 -1.348754e-06
 1.744936e-05
 9.591331e-07
 5.226884e-07
 1.001788e-06
 6.554274e-08
 -1.231252e-06
 -1.230367e-07
 1.087429e-07
 2.121773e-07
 1.772282e-05
 8.090792e-09
 -2.516079e-07
 -2.292259e-07
 -9.722907e-08
 0.000000e+00
 0.000000e+00
 -5.279733e-08
 -1.074985e-07
 -1.574573e-07
 -1.879706e-07
 -1.886820e-07
 -1.683159e-07
 -1.421448e-07
 -1.169854e-07
 -9.098551e-08
 -5.647460e-08
 7.083818e-10
 9.777521e-08
 1.519543e-07
 -9.386982e-08
 -3.770321e-07
 -3.436227e-07
 -2.230907e-07
 -1.533372e-07
 -1.065206e-07
 -6.357620e-08
 -2.911911e-09
 3.492305e-08
 1.759812e-05
 1.983273e-07
 -1.547099e-08
 -3.112045e-07
 -2.793110e-07
 -1.589027e-07
 -9.063351e-08
 -4.837142e-08
 -1.543263e-08
 2.199568e-08
 9.026556e-08
 2.774810e-07
 8.965921e-07
 1.746210e-05
 -1.273056e-06
 -8.725427e-08
 1.313395e-07
 -1.393466e-08
 -1.852702e-07
 -1.737458e-08
 3.158582e-07
 1.034189e-06
 1.153415e-07
 -1.305306e-06
 -3.455042e-07
 -1.958023e-07
 -9.147806e-08
 0.000000e+00
 0.000000e+00
 -3.461916e-08
 -6.732676e-08
 -9.524522e-08
 -1.140872e-07
 -1.206253e-07
 -1.161808e-07
 -1.048973e-07
 -8.959817e-08
 -7.020832e-08
 -4.456815e-08
 -1.148240e-08
 1.839003e-08
 3.864229e-09
 -9.074659e-08
 -1.909102e-07
 -2.072143e-07
 -1.649006e-07
 -1.101909e-07
 -4.872792e-08
 4.323770e-08
 2.461664e-07
 9.264111e-07
 4.916541e-08
 -1.282832e-06
 -3.100714e-07
 -2.430503e-07
 -2.044931e-07
 -1.422659e-07
 -8.409929e-08
 -3.455895e-08
 1.552696e-08
 8.307378e-08
 2.042760e-07
 4.729818e-07
 1.171591e-06
 1.969478e-08
 -1.577063e-06
 -4.805185e-07
 -2.307558e-07
 -1.602975e-07
 -5.706476e-08
 1.242273e-07
 3.049682e-07
 3.816957e-07
 1.136211e-07
 -2.230930e-07
 -2.436351e-07
 -1.471167e-07
 -7.027334e-08
 0.000000e+00
 0.000000e+00
 -1.819598e-08
 -3.160434e-08
 -4.221584e-08
 -5.348231e-08
 -6.409541e-08
 -7.055539e-08
 -7.111853e-08
 -6.592002e-08
 -5.567046e-08
 -4.149726e-08
 -2.676505e-08
 -2.051213e-08
 -3.667660e-08
 -7.779329e-08
 -1.183413e-07
 -1.295804e-07
 -1.097677e-07
 -7.041656e-08
 -1.491042e-08
 6.630840e-08
 1.884142e-07
 2.650687e-07
 2.997054e-08
 -2.683582e-07
 -2.788555e-07
 -2.060226e-07
 -1.602019e-07
 -1.144165e-07
 -6.752422e-08
 -2.036497e-08
 3.164629e-08
 9.836599e-08
 1.943377e-07
 3.250429e-07
 3.648756e-07
 1.729401e-08
 -3.901908e-07
 -4.371209e-07
 -4.163518e-07
 -3.734921e-07
 -3.467880e-08
 2.875831e-07
 3.161885e-07
 2.430885e-07
 1.030598e-07
 -4.089758e-08
 -9.655103e-08
 -8.163622e-08
 -4.341234e-08
 0.000000e+00
 0.000000e+00
 -8.193282e-09
 1.074288e-09
 1.262800e-08
 6.838447e-09
 -1.216371e-08
 -3.117175e-08
 -4.315553e-08
 -4.730705e-08
 -4.536237e-08
 -3.998405e-08
 -3.494118e-08
 -3.540707e-08
 -4.584851e-08
 -6.460959e-08
 -8.147504e-08
 -8.521959e-08
 -7.214969e-08
 -4.454058e-08
 -4.914388e-09
 4.428727e-08
 8.952902e-08
 8.605701e-08
 -6.897420e-09
 -1.194720e-07
 -1.612703e-07
 -1.488648e-07
 -1.207281e-07
 -8.721524e-08
 -5.018029e-08
 -1.020032e-08
 3.400204e-08
 8.449119e-08
 1.393190e-07
 1.781913e-07
 1.441258e-07
 -5.572469e-09
 -1.813352e-07
 -2.911845e-07
 -4.402810e-07
 -1.468436e-06
 -8.935203e-08
 9.068999e-07
 3.425623e-07
 1.981375e-07
 1.042929e-07
 2.403583e-08
 -2.203708e-08
 -3.202289e-08
 -2.036724e-08
 0.000000e+00
 0.000000e+00
 -2.367243e-08
 3.091520e-08
 9.058773e-08
 8.159283e-08
 3.819323e-08
 1.126506e-10
 -2.336645e-08
 -3.489265e-08
 -3.866326e-08
 -3.843811e-08
 -3.762653e-08
 -3.924536e-08
 -4.488442e-08
 -5.310869e-08
 -5.938748e-08
 -5.878681e-08
 -4.892771e-08
 -3.038774e-08
 -5.732277e-09
 1.979218e-08
 3.511307e-08
 2.392505e-08
 -1.885901e-08
 -6.937014e-08
 -9.811169e-08
 -1.004382e-07
 -8.629015e-08
 -6.339600e-08
 -3.540515e-08
 -4.048585e-09
 2.964385e-08
 6.376434e-08
 9.239047e-08
 1.015646e-07
 7.201292e-08
 5.850813e-10
 -8.082588e-08
 -1.363670e-07
 -1.559063e-07
 -1.977935e-07
 1.730856e-05
 -1.939833e-08
 1.290127e-07
 1.390192e-07
 9.863777e-08
 4.916340e-08
 1.348359e-08
 -3.153066e-09
 -5.203626e-09
 0.000000e+00
 0.000000e+00
 -1.559351e-07
 5.832987e-08
 2.645266e-07
 1.868616e-07
 7.694181e-08
 1.540193e-08
 -1.559737e-08
 -3.012048e-08
 -3.590877e-08
 -3.744610e-08
 -3.767008e-08
 -3.851441e-08
 -4.071780e-08
 -4.347597e-08
 -4.470251e-08
 -4.215213e-08
 -3.466137e-08
 -2.269954e-08
 -8.428944e-09
 4.062905e-09
 8.734001e-09
 -6.677200e-11
 -2.184185e-08
 -4.696105e-08
 -6.377836e-08
 -6.750780e-08
 -5.989047e-08
 -4.440398e-08
 -2.386299e-08
 -3.320794e-10
 2.424437e-08
 4.706958e-08
 6.334093e-08
 6.610178e-08
 4.972069e-08
 1.755310e-08
 -1.348036e-08
 -1.492393e-08
 7.911975e-08
 6.043720e-07
 -3.263951e-07
 -1.339820e-06
 -7.025432e-11
 1.332508e-07
 9.744424e-08
 5.765233e-08
 2.832990e-08
 1.079384e-08
 2.809436e-09
 0.000000e+00
 0.000000e+00
 -1.242168e-06
 1.375649e-08
 8.954638e-07
 2.392955e-07
 6.355984e-08
 1.768875e-09
 -2.325196e-08
 -3.358848e-08
 -3.717888e-08
 -3.762130e-08
 -3.690023e-08
 -3.614786e-08
 -3.575255e-08
 -3.534467e-08
 -3.400031e-08
 -3.074651e-08
 -2.513830e-08
 -1.763552e-08
 -9.738186e-09
 -3.919419e-09
 -3.095767e-09
 -9.171536e-09
 -2.107637e-08
 -3.436755e-08
 -4.374234e-08
 -4.609979e-08
 -4.118437e-08
 -3.033009e-08
 -1.528175e-08
 2.206668e-09
 2.024365e-08
 3.646493e-08
 4.785539e-08
 5.135590e-08
 4.584828e-08
 3.484395e-08
 2.734914e-08
 3.472101e-08
 5.493071e-08
 -7.205532e-08
 -1.384985e-06
 -3.245077e-07
 6.658240e-07
 1.837458e-07
 9.098620e-08
 5.484774e-08
 3.079798e-08
 1.482896e-08
 5.537987e-09
 0.000000e+00
 0.000000e+00
 -2.377395e-08
 1.742879e-05
 -3.803310e-08
 -1.622518e-08
 -3.616439e-08
 -4.220898e-08
 -4.380585e-08
 -4.322040e-08
 -4.137068e-08
 -3.883373e-08
 -3.604068e-08
 -3.329063e-08
 -3.069731e-08
 -2.813944e-08
 -2.530265e-08
 -2.185341e-08
 -1.768704e-08
 -1.313915e-08
 -9.072367e-09
 -6.762928e-09
 -7.485174e-09
 -1.178003e-08
 -1.876193e-08
 -2.614814e-08
 -3.125722e-08
 -3.221804e-08
 -2.845964e-08
 -2.043764e-08
 -9.157750e-09
 4.115325e-09
 1.792918e-08
 3.063953e-08
 4.055148e-08
 4.644390e-08
 4.850753e-08
 4.915446e-08
 5.251134e-08
 6.081535e-08
 6.358436e-08
 2.687162e-08
 -1.288401e-07
 1.724941e-05
 -1.298828e-07
 2.316863e-08
 5.450695e-08
 4.347324e-08
 2.503460e-08
 1.187545e-08
 4.384219e-09
 0.000000e+00
 0.000000e+00
 7.929433e-07
 -7.417973e-08
 -1.381444e-06
 -3.125535e-07
 -1.455945e-07
 -8.992346e-08
 -6.639373e-08
 -5.407358e-08
 -4.622903e-08
 -4.028214e-08
 -3.510732e-08
 -3.023472e-08
 -2.557020e-08
 -2.120762e-08
 -1.725677e-08
 -1.375441e-08
 -1.071040e-08
 -8.239234e-09
 -6.659578e-09
 -6.453772e-09
 -8.042090e-09
 -1.143549e-08
 -1.596984e-08
 -2.036651e-08
 -2.316141e-08
 -2.323076e-08
 -2.008311e-08
 -1.383946e-08
 -5.055818e-09
 5.447419e-09
 1.669836e-08
 2.767712e-08
 3.750248e-08
 4.576640e-08
 5.294657e-08
 6.061157e-08