<VTKFile type="UnstructuredGrid"  version="0.1"   >
<UnstructuredGrid>  
<Piece  NumberOfPoints="     2601"  NumberOfCells="     5000">  
<Points>  
<DataArray  type="Float64"  NumberOfComponents="3"  format="ascii">  
 0.000000 0.000000 0.000000 
 0.020000 0.000000 0.000000 
 0.040000 0.000000 0.000000 
 0.060000 0.000000 0.000000 
 0.080000 0.000000 0.000000 
 0.100000 0.000000 0.000000 
 0.120000 0.000000 0.000000 
 0.140000 0.000000 0.000000 
 0.160000 0.000000 0.000000 
 0.180000 0.000000 0.000000 
 0.200000 0.000000 0.000000 
 0.220000 0.000000 0.000000 
 0.240000 0.000000 0.000000 
 0.260000 0.000000 0.000000 
 0.280000 0.000000 0.000000 
 0.300000 0.000000 0.000000 
 0.320000 0.000000 0.000000 
 0.340000 0.000000 0.000000 
 0.360000 0.000000 0.000000 
 0.380000 0.000000 0.000000 
 0.400000 0.000000 0.000000 
 0.420000 0.000000 0.000000 
 0.440000 0.000000 0.000000 
 0.460000 0.000000 0.000000 
 0.480000 0.000000 0.000000 
 0.500000 0.000000 0.000000 
 0.520000 0.000000 0.000000 
 0.540000 0.000000 0.000000 
 0.560000 0.000000 0.000000 
 0.580000 0.000000 0.000000 
 0.600000 0.000000 0.000000 
 0.620000 0.000000 0.000000 
 0.640000 0.000000 0.000000 
 0.660000 0.000000 0.000000 
 0.680000 0.000000 0.000000 
 0.700000 0.000000 0.000000 
 0.720000 0.000000 0.000000 
 0.740000 0.000000 0.000000 
 0.760000 0.000000 0.000000 
 0.780000 0.000000 0.000000 
 0.800000 0.000000 0.000000 
 0.820000 0.000000 0.000000 
 0.840000 0.000000 0.000000 
 0.860000 0.000000 0.000000 
 0.880000 0.000000 0.000000 
 0.900000 0.000000 0.000000 
 0.920000 0.000000 0.000000 
 0.940000 0.000000 0.000000 
 0.960000 0.000000 0.000000 
 0.980000 0.000000 0.000000 
 1.000000 0.000000 0.000000 
 0.000000 0.020000 0.000000 
 0.020000 0.020000 0.000000 
 0.040000 0.020000 0.000000 
 0.060000 0.020000 0.000000 
 0.080000 0.020000 0.000000 
 0.100000 0.020000 0.000000 
 0.120000 0.020000 0.000000 
 0.140000 0.020000 0.000000 
 0.160000 0.020000 0.000000 
 0.180000 0.020000 0.000000 
 0.200000 0.020000 0.000000 
 0.220000 0.020000 0.000000 
 0.240000 0.020000 0.000000 
 0.260000 0.020000 0.000000 
 0.280000 0.020000 0.000000 
 0.300000 0.020000 0.000000 
 0.320000 0.020000 0.000000 
 0.340000 0.020000 0.000000 
 0.360000 0.020000 0.000000 
 0.380000 0.020000 0.000000 
 0.400000 0.020000 0.000000 
 0.420000 0.020000 0.000000 
 0.440000 0.020000 0.000000 
 0.460000 0.020000 0.000000 
 0.480000 0.020000 0.000000 
 0.500000 0.020000 0.000000 
 0.520000 0.020000 0.000000 
 0.540000 0.020000 0.000000 
 0.560000 0.020000 0.000000 
 0.580000 0.020000 0.000000 
 0.600000 0.020000 0.000000 
 0.620000 0.020000 0.000000 
 0.640000 0.020000 0.000000 
 0.660000 0.020000 0.000000 
 0.680000 0.020000 0.000000 
 0.700000 0.020000 0.000000 
 0.720000 0.020000 0.000000 
 0.740000 0.020000 0.000000 
 0.760000 0.020000 0.000000 
 0.780000 0.020000 0.000000 
 0.800000 0.020000 0.000000 
 0.820000 0.020000 0.000000 
 0.840000 0.020000 0.000000 
 0.860000 0.020000 0.000000 
 0.880000 0.020000 0.000000 
 0.900000 0.020000 0.000000 
 0.920000 0.020000 0.000000 
 0.940000 0.020000 0.000000 
 0.960000 0.020000 0.000000 
 0.980000 0.020000 0.000000 
 1.000000 0.020000 0.000000 
 0.000000 0.040000 0.000000 
 0.020000 0.040000 0.000000 
 0.040000 0.040000 0.000000 
 0.060000 0.040000 0.000000 
 0.080000 0.040000 0.000000 
 0.100000 0.040000 0.000000 
 0.120000 0.040000 0.000000 
 0.140000 0.040000 0.000000 
 0.160000 0.040000 0.000000 
 0.180000 0.040000 0.000000 
 0.200000 0.040000 0.000000 
 0.220000 0.040000 0.000000 
 0.240000 0.040000 0.000000 
 0.260000 0.040000 0.000000 
 0.280000 0.040000 0.000000 
 0.300000 0.040000 0.000000 
 0.320000 0.040000 0.000000 
 0.340000 0.040000 0.000000 
 0.360000 0.040000 0.000000 
 0.380000 0.040000 0.000000 
 0.400000 0.040000 0.000000 
 0.420000 0.040000 0.000000 
 0.440000 0.040000 0.000000 
 0.460000 0.040000 0.000000 
 0.480000 0.040000 0.000000 
 0.500000 0.040000 0.000000 
 0.520000 0.040000 0.000000 
 0.540000 0.040000 0.000000 
 0.560000 0.040000 0.000000 
 0.580000 0.040000 0.000000 
 0.600000 0.040000 0.000000 
 0.620000 0.040000 0.000000 
 0.640000 0.040000 0.000000 
 0.660000 0.040000 0.000000 
 0.680000 0.040000 0.000000 
 0.700000 0.040000 0.000000 
 0.720000 0.040000 0.000000 
 0.740000 0.040000 0.000000 
 0.760000 0.040000 0.000000 
 0.780000 0.040000 0.000000 
 0.800000 0.040000 0.000000 
 0.820000 0.040000 0.000000 
 0.840000 0.040000 0.000000 
 0.860000 0.040000 0.000000 
 0.880000 0.040000 0.000000 
 0.900000 0.040000 0.000000 
 0.920000 0.040000 0.000000 
 0.940000 0.040000 0.000000 
 0.960000 0.040000 0.000000 
 0.980000 0.040000 0.000000 
 1.000000 0.040000 0.000000 
 0.000000 0.060000 0.000000 
 0.020000 0.060000 0.000000 
 0.040000 0.060000 0.000000 
 0.060000 0.060000 0.000000 
 0.080000 0.060000 0.000000 
 0.100000 0.060000 0.000000 
 0.120000 0.060000 0.000000 
 0.140000 0.060000 0.000000 
 0.160000 0.060000 0.000000 
 0.180000 0.060000 0.000000 
 0.200000 0.060000 0.000000 
 0.220000 0.060000 0.000000 
 0.240000 0.060000 0.000000 
 0.260000 0.060000 0.000000 
 0.280000 0.060000 0.000000 
 0.300000 0.060000 0.000000 
 0.320000 0.060000 0.000000 
 0.340000 0.060000 0.000000 
 0.360000 0.060000 0.000000 
 0.380000 0.060000 0.000000 
 0.400000 0.060000 0.000000 
 0.420000 0.060000 0.000000 
 0.440000 0.060000 0.000000 
 0.460000 0.060000 0.000000 
 0.480000 0.060000 0.000000 
 0.500000 0.060000 0.000000 
 0.520000 0.060000 0.000000 
 0.540000 0.060000 0.000000 
 0.560000 0.060000 0.000000 
 0.580000 0.060000 0.000000 
 0.600000 0.060000 0.000000 
 0.620000 0.060000 0.000000 
 0.640000 0.060000 0.000000 
 0.660000 0.060000 0.000000 
 0.680000 0.060000 0.000000 
 0.700000 0.060000 0.000000 
 0.720000 0.060000 0.000000 
 0.740000 0.060000 0.000000 
 0.760000 0.060000 0.000000 
 0.780000 0.060000 0.000000 
 0.800000 0.060000 0.000000 
 0.820000 0.060000 0.000000 
 0.840000 0.060000 0.000000 
 0.860000 0.060000 0.000000 
 0.880000 0.060000 0.000000 
 0.900000 0.060000 0.000000 
 0.920000 0.060000 0.000000 
 0.940000 0.060000 0.000000 
 0.960000 0.060000 0.000000 
 0.980000 0.060000 0.000000 
 1.000000 0.060000 0.000000 
 0.000000 0.080000 0.000000 
 0.020000 0.080000 0.000000 
 0.040000 0.080000 0.000000 
 0.060000 0.080000 0.000000 
 0.080000 0.080000 0.000000 
 0.100000 0.080000 0.000000 
 0.120000 0.080000 0.000000 
 0.140000 0.080000 0.000000 
 0.160000 0.080000 0.000000 
 0.180000 0.080000 0.000000 
 0.200000 0.080000 0.000000 
 0.220000 0.080000 0.000000 
 0.240000 0.080000 0.000000 
 0.260000 0.080000 0.000000 
 0.280000 0.080000 0.000000 
 0.300000 0.080000 0.000000 
 0.320000 0.080000 0.000000 
 0.340000 0.080000 0.000000 
 0.360000 0.080000 0.000000 
 0.380000 0.080000 0.000000 
 0.400000 0.080000 0.000000 
 0.420000 0.080000 0.000000 
 0.440000 0.080000 0.000000 
 0.460000 0.080000 0.000000 
 0.480000 0.080000 0.000000 
 0.500000 0.080000 0.000000 
 0.520000 0.080000 0.000000 
 0.540000 0.080000 0.000000 
 0.560000 0.080000 0.000000 
 0.580000 0.080000 0.000000 
 0.600000 0.080000 0.000000 
 0.620000 0.080000 0.000000 
 0.640000 0.080000 0.000000 
 0.660000 0.080000 0.000000 
 0.680000 0.080000 0.000000 
 0.700000 0.080000 0.000000 
 0.720000 0.080000 0.000000 
 0.740000 0.080000 0.000000 
 0.760000 0.080000 0.000000 
 0.780000 0.080000 0.000000 
 0.800000 0.080000 0.000000 
 0.820000 0.080000 0.000000 
 0.840000 0.080000 0.000000 
 0.860000 0.080000 0.000000 
 0.880000 0.080000 0.000000 
 0.900000 0.080000 0.000000 
 0.920000 0.080000 0.000000 
 0.940000 0.080000 0.000000 
 0.960000 0.080000 0.000000 
 0.980000 0.080000 0.000000 
 1.000000 0.080000 0.000000 
 0.000000 0.100000 0.000000 
 0.020000 0.100000 0.000000 
 0.040000 0.100000 0.000000 
 0.060000 0.100000 0.000000 
 0.080000 0.100000 0.000000 
 0.100000 0.100000 0.000000 
 0.120000 0.100000 0.000000 
 0.140000 0.100000 0.000000 
 0.160000 0.100000 0.000000 
 0.180000 0.100000 0.000000 
 0.200000 0.100000 0.000000 
 0.220000 0.100000 0.000000 
 0.240000 0.100000 0.000000 
 0.260000 0.100000 0.000000 
 0.280000 0.100000 0.000000 
 0.300000 0.100000 0.000000 
 0.320000 0.100000 0.000000 
 0.340000 0.100000 0.000000 
 0.360000 0.100000 0.000000 
 0.380000 0.100000 0.000000 
 0.400000 0.100000 0.000000 
 0.420000 0.100000 0.000000 
 0.440000 0.100000 0.000000 
 0.460000 0.100000 0.000000 
 0.480000 0.100000 0.000000 
 0.500000 0.100000 0.000000 
 0.520000 0.100000 0.000000 
 0.540000 0.100000 0.000000 
 0.560000 0.100000 0.000000 
 0.580000 0.100000 0.000000 
 0.600000 0.100000 0.000000 
 0.620000 0.100000 0.000000 
 0.640000 0.100000 0.000000 
 0.660000 0.100000 0.000000 
 0.680000 0.100000 0.000000 
 0.700000 0.100000 0.000000 
 0.720000 0.100000 0.000000 
 0.740000 0.100000 0.000000 
 0.760000 0.100000 0.000000 
 0.780000 0.100000 0.000000 
 0.800000 0.100000 0.000000 
 0.820000 0.100000 0.000000 
 0.840000 0.100000 0.000000 
 0.860000 0.100000 0.000000 
 0.880000 0.100000 0.000000 
 0.900000 0.100000 0.000000 
 0.920000 0.100000 0.000000 
 0.940000 0.100000 0.000000 
 0.960000 0.100000 0.000000 
 0.980000 0.100000 0.000000 
 1.000000 0.100000 0.000000 
 0.000000 0.120000 0.000000 
 0.020000 0.120000 0.000000 
 0.040000 0.120000 0.000000 
 0.060000 0.120000 0.000000 
 0.080000 0.120000 0.000000 
 0.100000 0.120000 0.000000 
 0.120000 0.120000 0.000000 
 0.140000 0.120000 0.000000 
 0.160000 0.120000 0.000000 
 0.180000 0.120000 0.000000 
 0.200000 0.120000 0.000000 
 0.220000 0.120000 0.000000 
 0.240000 0.120000 0.000000 
 0.260000 0.120000 0.000000 
 0.280000 0.120000 0.000000 
 0.300000 0.120000 0.000000 
 0.320000 0.120000 0.000000 
 0.340000 0.120000 0.000000 
 0.360000 0.120000 0.000000 
 0.380000 0.120000 0.000000 
 0.400000 0.120000 0.000000 
 0.420000 0.120000 0.000000 
 0.440000 0.120000 0.000000 
 0.460000 0.120000 0.000000 
 0.480000 0.120000 0.000000 
 0.500000 0.120000 0.000000 
 0.520000 0.120000 0.000000 
 0.540000 0.120000 0.000000 
 0.560000 0.120000 0.000000 
 0.580000 0.120000 0.000000 
 0.600000 0.120000 0.000000 
[...]
<PointData  Scalars="U"> 
<DataArray  type="Float64"  Name="U"  format="ascii"> 
 0.000000e+00
 0.000000e+00
 0.000000e+00
 0.000000e+00
 0.000000e+00
 0.000000e+00
 0.000000e+00
 0.000000e+00
 0.000000e+00
 0.000000e+00
 0.000000e+00
 0.000000e+00
 0.000000e+00
 0.000000e+00
 0.000000e+00
 0.000000e+00
 0.000000e+00
 0.000000e+00
 0.000000e+00
 0.000000e+00
 0.000000e+00
 0.000000e+00
 0.000000e+00
 0.000000e+00
 0.000000e+00
 0.000000e+00
 0.000000e+00
 0.000000e+00
 0.000000e+00
 0.000000e+00
 0.000000e+00
 0.000000e+00
 0.000000e+00
 0.000000e+00
 0.000000e+00
 0.000000e+00
 0.000000e+00
 0.000000e+00
 0.000000e+00
 0.000000e+00
 0.000000e+00
 0.000000e+00
 0.000000e+00
 0.000000e+00
 0.000000e+00
 0.000000e+00
 0.000000e+00
 0.000000e+00
 0.000000e+00
 0.000000e+00
 0.000000e+00
 0.000000e+00
 8.862756e-08
 2.280682e-07
 2.300345e-07
 1.739797e-05
 -3.172943e-07
 -2.389532e-07
 -1.409245e-07
 -4.777775e-08
 2.734864e-08
 8.187537e-08
 1.427744e-07
 2.615325e-07
 2.525714e-07
 1.741942e-05
 -2.899548e-07
 -2.077815e-07
 -1.221056e-07
 -5.797567e-08
 -5.000689e-10
 7.949012e-08
 2.245152e-07
 2.414947e-07
 1.742813e-05
 -2.719810e-07
 -1.930053e-07
 -1.248081e-07
 -1.016664e-07
 -1.452078e-07
 -3.607891e-07
 -1.631118e-06
 -6.063857e-07
 1.382783e-07
 -1.159602e-06
 -3.417965e-06
 -3.698420e-06
 -1.193354e-06
 -5.962845e-07
 -3.909527e-07
 -3.058535e-07
 -2.487779e-07
 -1.683905e-07
 -4.489778e-08
 5.165358e-08
 6.992187e-08
 5.254636e-08
 3.604831e-08
 2.537163e-08
 1.684396e-08
 7.914153e-09
 0.000000e+00
 0.000000e+00
 1.296634e-07
 3.416248e-07
 9.572209e-07
 -7.397007e-08
 -1.519574e-06
 -4.963538e-07
 -2.745323e-07
 -7.708372e-08
 8.161561e-08
 1.612036e-07
 2.305851e-07
 3.983130e-07
 9.920972e-07
 -3.909504e-08
 -1.464396e-06
 -4.156495e-07
 -2.137279e-07
 -1.085225e-07
 -2.127290e-08
 9.755487e-08
 3.247953e-07
 9.762953e-07
 -1.065561e-08
 -1.415828e-06
 -3.728125e-07
 -1.992045e-07
 -1.478442e-07
 -1.626837e-07
 -2.557542e-07
 -5.914439e-07
 1.553453e-05
 -1.036362e-06
 -7.262308e-07
 -1.965342e-06
 -2.006270e-06
 -1.366045e-06
 -8.844748e-07
 -6.845208e-07
 -5.879441e-07
 -5.218498e-07
 -4.032397e-07
 -5.829932e-08
 2.054292e-07
 1.695577e-07
 9.797784e-08
 6.557741e-08
 4.900670e-08
 3.425940e-08
 1.769169e-08
 0.000000e+00
 0.000000e+00
 1.052937e-07
 2.230151e-07
 2.566693e-07
 -5.540232e-08
 -4.363356e-07
 -5.326080e-07
 -4.365190e-07
 -6.778300e-08
 2.423304e-07
 2.508021e-07
 2.321053e-07
 2.799072e-07
 2.823206e-07
 -2.869175e-08
 -3.672341e-07
 -3.564649e-07
 -2.308821e-07
 -1.436967e-07
 -7.026876e-08
 2.366999e-08
 1.706211e-07
 2.753045e-07
 4.555201e-08
 -2.611884e-07
 -2.640143e-07
 -1.767323e-07
 -1.366159e-07
 -1.094547e-07
 -2.155818e-08
 4.832633e-07
 -6.971611e-07
 1.509225e-05
 -1.752749e-06
 -1.847623e-06
 -1.537050e-06
 -1.065703e-06
 -8.899304e-07
 -8.923662e-07
 -8.753961e-07
 -6.763041e-07
 -1.422292e-06
 -7.815612e-08
 8.231664e-07
 2.174030e-07
 1.008593e-07
 8.202072e-08
 7.255666e-08
 5.416060e-08
 2.853375e-08
 0.000000e+00
 0.000000e+00
 6.226524e-08
 1.044739e-07
 7.890542e-08
 -5.369936e-08
 -2.285891e-07
 -4.246633e-07
 -1.453978e-06
 -8.334306e-08
 8.763627e-07
 2.818414e-07
 1.575548e-07
 1.253516e-07
 6.554464e-08
 -7.358639e-08
 -2.100346e-07
 -2.446700e-07
 -2.073972e-07
 -1.636539e-07
 -1.382269e-07
 -1.126477e-07
 -3.293378e-08
 8.787641e-08
 1.035045e-07
 1.503124e-09
 -7.932245e-08
 -1.065347e-07
 -1.091883e-07
 -9.101662e-08
 -2.881017e-08
 5.700365e-08
 2.612718e-07
 -1.191021e-06
 -2.848688e-06
 -2.874434e-06
 -1.352978e-06
 -2.782103e-07
 -7.853897e-07
 -9.580987e-07
 -1.957731e-06
 -5.527368e-07
 4.119302e-07
 1.733680e-05
 -1.614050e-07
 -5.114583e-08
 3.630710e-08
 9.836196e-08
 1.077015e-07
 8.137635e-08
 4.190753e-08
 0.000000e+00
 0.000000e+00
 3.317990e-08
 5.049986e-08
 3.559284e-08
 -1.215083e-08
 -6.096641e-08
 -6.896195e-08
 -8.956487e-08
 1.739283e-05
 -3.949577e-08
 1.274223e-08
 1.204162e-08
 2.284707e-09
 -4.060042e-08
 -1.165492e-07
 -1.872905e-07
 -2.078617e-07
 -1.809588e-07
 -1.592619e-07
 -1.966374e-07
 -3.124185e-07
 -3.170322e-07
 3.949780e-08
 3.168952e-07
 2.091688e-07
 4.297988e-08
 -5.343303e-08
 -9.833974e-08
 -1.141188e-07
 -1.175307e-07
 -1.434858e-07
 -3.126335e-07
 -7.980120e-07
 -1.218505e-06
 -1.273540e-06
 1.631094e-05
 -1.024322e-06
 -8.679252e-07
 -7.487454e-07
 -6.584571e-07
 1.700821e-05
 2.569974e-07
 -4.902133e-07
 -1.650523e-06
 -3.769829e-07
 8.958863e-09
 1.755640e-07
 1.784909e-07
 1.191413e-07
 5.630206e-08
 0.000000e+00
 0.000000e+00
 1.924529e-08
 3.108251e-08
 3.226460e-08
 3.192356e-08
 6.299988e-08
 2.139189e-07
 8.520972e-07
 -5.181987e-08
 -1.361024e-06
 -2.868991e-07
 -1.213354e-07
 -8.444684e-08
 -1.054539e-07
 -1.626321e-07
 -2.246021e-07
 -2.287308e-07
 -1.485998e-07
 -8.963870e-08
 -1.674588e-07
 -4.573434e-07
 -1.575109e-06
 -1.342476e-09
 1.115573e-06
 3.788920e-07
 8.253944e-08
 -5.007361e-08
 -1.148166e-07
 -1.529429e-07
 -1.902403e-07
 -2.570379e-07
 -3.911433e-07
 -5.761368e-07
 -6.218286e-07
 -6.023159e-08
 -9.450329e-07
 -2.184915e-06
 -9.892545e-07
 -5.797653e-07
 1.811192e-07
 -6.766090e-07
 -1.947934e-06
 -8.954705e-07
 -7.980666e-07
 -4.273133e-07
 1.969352e-07
 4.319806e-07
 2.991678e-07
 1.518010e-07
 6.216719e-08
 0.000000e+00
 0.000000e+00
 1.325738e-08
 2.432683e-08
 3.427373e-08
 5.112555e-08
 9.261438e-08
 1.800229e-07
 2.316633e-07
 -1.206937e-08
 -2.929964e-07
 -2.624611e-07
 -1.558878e-07
 -1.185054e-07
 -1.324504e-07
 -1.957881e-07
 -3.227279e-07
 -3.663183e-07
 -9.411089e-08
 1.352022e-07
 3.940622e-08
 -1.958442e-07
 -1.335949e-06
 1.741326e-05
 8.363537e-07
 1.930050e-07
 -1.953397e-08
 -1.070090e-07
 -1.557018e-07
 -1.935385e-07
 -2.364302e-07
 -2.978958e-07
 -3.831040e-07
 -4.678243e-07
 -4.932606e-07
 -5.046610e-07
 -7.568855e-07
 -1.000416e-06
 -8.816491e-07
 -6.212548e-07
 -4.747328e-07
 -7.909016e-07
 -2.124622e-06
 -9.269481e-07
 -1.071949e-06
 -1.319498e-06
 8.576959e-07
 1.140999e-06
 3.438028e-07
 1.233522e-07
 4.210956e-08
 0.000000e+00
 0.000000e+00
 9.976238e-09
 1.987159e-08
 3.110964e-08
 4.729053e-08
 7.172799e-08
 9.564908e-08
 7.825133e-08
 -1.769098e-08
 -1.206698e-07
 -1.452889e-07
 -1.219044e-07
 -1.042955e-07
 -1.130917e-07
 -1.662785e-07
 -3.362582e-07
 -1.405050e-06
 -8.109224e-08
 8.511013e-07
 2.741630e-07
 2.997562e-07
 8.680410e-07
 1.739856e-05
 -1.400471e-06
 -3.344974e-07
 -2.157324e-07
 -1.962129e-07
 -2.060806e-07
 -2.290281e-07
 -2.632206e-07
 -3.100136e-07
 -3.669680e-07
 -4.235656e-07
 -4.722773e-07
 -5.389135e-07
 -6.569154e-07
 -7.588819e-07
 -7.544672e-07
 -6.478483e-07
 -5.265123e-07
 -5.602348e-07
 -6.799093e-07
 1.702264e-05
 -1.687840e-07
 1.738102e-05
 1.742215e-05
 5.876425e-09
 1.095974e-08
 -1.151542e-08
 -1.004295e-08
 0.000000e+00
 0.000000e+00
 7.043718e-09
 1.450719e-08
 2.317738e-08
 3.378033e-08
 4.477105e-08
 4.833078e-08
 3.060076e-08
 -1.214621e-08
 -5.655122e-08
 -7.660924e-08
 -7.376354e-08
 -6.357045e-08
 -5.552010e-08
 -4.979137e-08
 -3.515393e-08
 -6.309040e-08
 1.740469e-05
 -2.081824e-08
 1.088903e-07
 3.681042e-07
 1.091587e-06
 -4.050494e-08
 -1.648817e-06
 -5.815563e-07
 -3.389332e-07
 -2.623774e-07
 -2.452910e-07
 -2.537515e-07
 -2.767744e-07
 -3.102405e-07
 -3.506650e-07
 -3.940076e-07
 -4.399734e-07
 -4.962002e-07
 -5.679361e-07
 -6.465613e-07
 -7.377269e-07
 -7.166858e-07
 -3.871769e-07
 -1.214333e-07
 -5.764713e-07
 -1.374876e-07
 2.117100e-07
 6.679033e-07
 -1.284175e-06
 -1.554683e-06
 -3.775057e-07
 -1.664384e-07
 -7.003734e-08
 0.000000e+00
 0.000000e+00
 3.773215e-09
 7.976183e-09
 1.300922e-08
 1.878382e-08
 2.366875e-08
 2.366608e-08
 1.421967e-08
 -4.231343e-09
 -2.323420e-08
 -3.317556e-08
 -3.125961e-08
 -1.913600e-08
 5.707229e-09
 6.229310e-08
 2.264528e-07
 8.633725e-07
 -4.900306e-08
 -1.359642e-06
 -2.472511e-07
 5.646637e-08
 2.403301e-07
 -2.447226e-10
 -3.823318e-07
 -4.206930e-07
 -3.274980e-07
 -2.786045e-07
 -2.620714e-07
 -2.648516e-07
 -2.798770e-07
 -3.032368e-07
 -3.319842e-07
 -3.636831e-07
 -3.973731e-07
 -4.338739e-07
 -4.746504e-07
 -5.297431e-07
 -6.680416e-07
 -1.675042e-06
 -2.601843e-07
 8.055158e-07
 2.447427e-07
 1.731233e-05
 -1.359991e-06
 -1.550255e-07
 3.505745e-07
 -4.591608e-07
 -4.174913e-07
 -2.413687e-07
 -1.104843e-07
 0.000000e+00
 0.000000e+00
 8.079536e-11
 5.543284e-10
 1.845945e-09
 4.209257e-09
 7.211718e-09
 9.323905e-09
 8.565734e-09
 4.479962e-09
 -5.190209e-10
 -2.499943e-09
 1.734509e-09
 1.484988e-08
 4.192085e-08
 9.442510e-08
 1.874401e-07
 2.357062e-07
 -2.311969e-08
 -3.397220e-07
 -3.894541e-07
 -2.842946e-07
 1.074921e-08
 1.290631e-07
 -7.797374e-08
 -2.293913e-07
 -2.650267e-07
 -2.636061e-07
 -2.606271e-07
 -2.641961e-07
 -2.747549e-07
 -2.908804e-07
 -3.106136e-07
 -3.317613e-07
 -3.519056e-07
 -3.677486e-07
 -3.737744e-07
 -3.611872e-07
 -3.136622e-07
 -2.783679e-07
 1.729751e-05
 8.289900e-08
 8.256889e-07
 -6.406293e-08
 -1.447039e-06
 1.697924e-05
 -4.652514e-07
 -4.598537e-07
 -3.971350e-07
 -2.681691e-07
 -1.323637e-07
 0.000000e+00
 0.000000e+00
 -3.991786e-09
 -7.703308e-09
 -1.050255e-08
 -1.121881e-08
 -8.480959e-09
 -1.880519e-09
 6.818586e-09
 1.439197e-08
 1.896582e-08
 2.178797e-08
 2.621753e-08
 3.598234e-08
 5.432556e-08
 8.204658e-08
 1.072139e-07
 8.589677e-08
 -2.489765e-08
 -1.736885e-07
 -3.563381e-07
 -1.401795e-06
 -9.316251e-08
 7.594802e-07
 4.838270e-08
 -1.609085e-07
 -2.279707e-07
 -2.464627e-07
 -2.516978e-07
 -2.563370e-07
 -2.639945e-07
 -2.748802e-07
 -2.878111e-07
 -3.007241e-07
 -3.103513e-07
 -3.108944e-07
 -2.908041e-07
 -2.234153e-07
 -2.786767e-08
 6.634805e-07
 -1.670861e-07
 -1.352755e-06
 -1.300056e-07
 4.772338e-08
 5.091631e-07
 -4.032124e-07
 -1.699477e-06
 -6.362343e-07
 -4.328879e-07
 -2.923270e-07
 -1.497413e-07
 0.000000e+00
 0.000000e+00
 -8.282630e-09
 -1.676947e-08
 -2.487235e-08
 -3.025098e-08
 -2.846062e-08
 -1.550842e-08
 6.460319e-09
 2.792625e-08
 4.056993e-08
 4.448665e-08
 4.529384e-08
 4.831943e-08
 5.584792e-08
 6.572612e-08
 6.895985e-08
 5.104833e-08
 8.371746e-09
 -3.482674e-08
 -4.643000e-08
 -8.911371e-08
 1.734753e-05
 -1.494188e-07
 -1.634909e-07
 -2.110276e-07
 -2.316505e-07
 -2.391960e-07
 -2.420674e-07
 -2.449819e-07
 -2.498088e-07
 -2.567079e-07
 -2.648512e-07
 -2.725951e-07
 -2.770367e-07
 -2.726767e-07
 -2.488494e-07
 -1.867349e-07
 -6.564380e-08
 2.589939e-08
 -1.922393e-07
 -5.028112e-07
 -4.513831e-07
 -5.990038e-08
 1.730908e-07
 -1.542676e-07
 -5.303531e-07
 -5.477923e-07
 -4.385692e-07
 -3.248816e-07
 -1.757530e-07
 0.000000e+00
 0.000000e+00
 -1.224574e-08
 -2.592129e-08
 -4.153102e-08
 -5.638760e-08
 -6.074751e-08
 -3.977411e-08
 6.861302e-09
 5.207816e-08
 7.187772e-08
 7.011482e-08
 6.160565e-08
 5.547466e-08
 5.384479e-08
 5.459121e-08
 5.335580e-08
 4.728559e-08
 4.323871e-08
 6.969044e-08
 2.096876e-07
 8.262243e-07
 -1.112344e-07
 -1.461634e-06
 -4.265600e-07
 -2.855934e-07
 -2.478306e-07
 -2.359466e-07
 -2.319132e-07
 -2.314450e-07
 -2.334011e-07
 -2.371714e-07
 -2.421049e-07
 -2.473728e-07
 -2.516963e-07
 -2.524656e-07
 -2.436974e-07
 -2.145606e-07
 -1.624529e-07
 -1.337562e-07
 -2.119706e-07
 -4.312153e-07
 -1.503456e-06
 -1.733877e-07
 7.087841e-07
 -2.442459e-08
 -2.975572e-07
 -4.134802e-07
 -4.513758e-07
 -4.015920e-07
 -2.306624e-07
 0.000000e+00
 0.000000e+00
 -1.466099e-08
 -3.268575e-08
 -5.768191e-08
 -9.146160e-08
 -1.207727e-07
 -9.614925e-08
 9.466287e-09
 1.080348e-07
 1.262663e-07
 1.009897e-07
 7.432739e-08
 5.747434e-08
 4.904726e-08
 4.553179e-08
 4.413522e-08
 4.492226e-08
 5.398460e-08
 8.630089e-08
 1.602807e-07
 1.923299e-07
 -7.690423e-08
 -3.860074e-07
 -3.802678e-07
 -2.874678e-07
 -2.449154e-07
 -2.264957e-07
 -2.185560e-07
 -2.155298e-07
 -2.151636e-07
 -2.164463e-07
 -2.189647e-07
 -2.229080e-07
 -2.293854e-07
 -2.407037e-07
 -2.589444e-07
 -2.745530e-07
 -2.480213e-07
 -1.657424e-07
 -1.121525e-07
 -1.193054e-07
 -1.850235e-07
 1.724360e-05
 -2.272103e-07
 -1.793545e-07
 -2.144386e-07
 -3.389444e-07
 -5.435647e-07
 -6.270739e-07
 -3.379781e-07
 0.000000e+00
 0.000000e+00
 -1.379330e-08
 -3.239930e-08
 -6.349104e-08
 -1.222523e-07
 -2.350843e-07
 -2.632683e-07
 2.338082e-08
 2.717793e-07
 2.202161e-07
 1.268815e-07
 7.573398e-08
 5.086217e-08
 3.945653e-08
 3.478730e-08
 3.373469e-08
 3.586217e-08
 4.304558e-08
 5.682412e-08
 6.692644e-08
 3.189542e-08
 -8.476547e-08
 -2.091938e-07
 -2.522546e-07
 -2.397755e-07
 -2.205019e-07
 -2.078094e-07
 -2.007596e-07
 -1.971258e-07
 -1.953607e-07
 -1.945778e-07
 -1.945502e-07
 -1.961341e-07
 -2.023810e-07
 -2.209792e-07
 -2.692015e-07
 -3.782605e-07
 -4.165603e-07
 -1.566154e-07
 7.831755e-08
 1.533405e-07
 7.178698e-07
 -2.707016e-07
 -1.625930e-06
 -3.307510e-07
 -1.842177e-08
 -1.830039e-07
 -5.935842e-07
 -1.829305e-06
 -4.827635e-07
 0.000000e+00
 0.000000e+00
 -8.536471e-09
 -2.079326e-08
 -4.405316e-08
 -9.933333e-08
 -2.650580e-07
 -1.329337e-06
 -6.910087e-09
 9.074659e-07
 2.703726e-07
 1.066319e-07
 5.237743e-08
 3.178952e-08
 2.367385e-08
 2.085256e-08
 2.058749e-08
 2.189845e-08
 2.413213e-08
 2.457799e-08
 1.468144e-08
 -1.940670e-08
 -8.048625e-08
 -1.434697e-07
 -1.802295e-07
 -1.902807e-07
 -1.880781e-07
 -1.834797e-07
 -1.796908e-07
 -1.769579e-07
 -1.746739e-07
 -1.721167e-07
 -1.688569e-07
 -1.653987e-07
 -1.645238e-07
 -1.745196e-07
 -2.195065e-07
 -3.834913e-07
 -1.463514e-06
 -1.884404e-07
 6.277496e-07
 -9.449867e-09
 6.650932e-08
 -1.472807e-07
 -1.488003e-06
 -1.689069e-07
 7.850870e-07
 9.119616e-08
 -2.481452e-07
 -1.447454e-06
 1.714710e-05
 0.000000e+00
 0.000000e+00
 -2.606857e-11
 1.203859e-10
 9.194551e-10
 4.260748e-09
 1.940033e-08
 -9.149998e-09
 1.744978e-05
 -9.375874e-09
 1.914657e-08
 4.325892e-09
 1.712142e-09
 2.008811e-09
 3.198658e-09
 4.629602e-09
 5.948448e-09
 6.734076e-09
 5.976866e-09
 1.226629e-09
 -1.184642e-08
 -3.732268e-08
 -7.352027e-08
 -1.104553e-07
 -1.373943e-07
 -1.515683e-07
 -1.568582e-07
 -1.579256e-07
 -1.574593e-07
 -1.563288e-07
 -1.543017e-07
 -1.504967e-07
 -1.437012e-07
 -1.328614e-07
 -1.178373e-07
 -9.995504e-08
 -8.111314e-08
 -5.763366e-08
 -9.395848e-08
 1.731870e-05
 -3.085465e-07
 -1.381288e-06
 -2.085523e-07
 5.851541e-07
 9.916514e-08
 1.762804e-05
 1.228761e-07
 1.471445e-07
 3.087237e-07
 9.667341e-07
 1.767301e-05
 0.000000e+00
 0.000000e+00
 8.349270e-09
 2.053914e-08
 4.409099e-08
 1.003007e-07
 2.650865e-07
 9.024859e-07
 -1.208959e-08
 -1.334975e-06
 -2.712136e-07
 -1.059608e-07
 -5.113787e-08
 -2.851483e-08
 -1.747914e-08
 -1.148658e-08
 -8.242529e-09
 -7.130029e-09
 -8.570503e-09
 -1.389841e-08
 -2.495056e-08
 -4.274062e-08
 -6.564210e-08
 -8.916328e-08
 -1.085574e-07
 -1.217300e-07
 -1.294475e-07
 -1.335967e-07
 -1.357197e-07
 -1.364923e-07
 -1.356467e-07
 -1.318835e-07
 -1.227443e-07
 -1.047881e-07
 -7.420179e-08
 -2.587164e-08
 5.649781e-08
 2.440092e-07
 8.987311e-07
 -3.038774e-09
 -1.313073e-06
 -3.116810e-07
 1.717932e-05
 -1.168066e-06
 8.108619e-07
 8.233306e-07
 -1.052933e-06
 1.586600e-08
 4.708991e-07
 1.335002e-06
 4.876865e-07
 0.000000e+00
 0.000000e+00
 1.337136e-08
 3.132730e-08
 6.096634e-08
 1.152087e-07
 2.101403e-07
 2.621015e-07
 1.327321e-08
 -2.742771e-07
 -2.472096e-07
 -1.356143e-07
 -7.830670e-08
 -4.919687e-08
 -3.368035e-08
 -2.509196e-08
 -2.046219e-08
 -1.860091e-08
 -1.934424e-08
 -2.318660e-08
 -3.083021e-08
 -4.246600e-08
 -5.709018e-08
 -7.254061e-08
 -8.647951e-08
 -9.751483e-08
 -1.055161e-07
 -1.111381e-07
 -1.151757e-07
 -1.181054e-07
 -1.197079e-07
 -1.184614e-07
 -1.105618e-07
 -8.932834e-08
 -4.711852e-08
 2.057120e-08
 1.169876e-07
 2.509259e-07
 3.441835e-07
 1.645164e-07
 5.539057e-08
 7.414461e-07
 -1.084663e-08
 -1.229097e-06
 1.737399e-05
 -1.138564e-07
 -2.178796e-07
 -3.009302e-08
 2.968623e-07
 5.083809e-07
 3.533041e-07
 0.000000e+00
 0.000000e+00
 1.419313e-08
 3.140921e-08
 5.476836e-08
 8.549636e-08
 1.126132e-07
 9.448422e-08
 -5.115617e-09
 -1.123407e-07
 -1.387800e-07
 -1.113759e-07
 -7.974233e-08
 -5.751697e-08
 -4.350272e-08
 -3.500589e-08
 -3.007484e-08
 -2.758025e-08
 -2.706356e-08
 -2.858988e-08
 -3.249634e-08
 -3.897723e-08
 -4.767802e-08
 -5.761553e-08
 -6.754073e-08
 -7.646728e-08
 -8.397947e-08
 -9.020800e-08
 -9.563017e-08
 -1.008427e-07
 -1.062366e-07
 -1.111380e-07
 -1.114366e-07
 -9.554320e-08
 -4.613765e-08
 4.021886e-08
 1.384007e-07
 2.158124e-07
 2.409174e-07
 2.065239e-07
 2.181835e-07
 3.050493e-07
 2.595138e-07
 6.530523e-07
 -2.241262e-07
 -1.470413e-06
 -3.470233e-07
 -5.075406e-08
 1.508180e-07
 2.371122e-07
 1.690913e-07
 0.000000e+00
 0.000000e+00
 1.204821e-08
 2.522015e-08
 3.976259e-08
 5.307301e-08
 5.640459e-08
 3.577977e-08
 -1.164914e-08
 -6.098675e-08
 -8.459097e-08
 -8.265401e-08
 -7.024767e-08
 -5.759249e-08
 -4.796703e-08
 -4.149213e-08
 -3.736155e-08
 -3.467221e-08
 -3.279100e-08
 -3.158995e-08
 -3.148644e-08
 -3.314916e-08
 -3.697963e-08
 -4.275438e-08
 -4.970637e-08
 -5.692990e-08
 -6.378398e-08
 -7.010526e-08
 -7.627211e-08
 -8.326086e-08
 -9.276593e-08
 -1.070875e-07
 -1.268357e-07
 -1.375398e-07
 -8.857852e-08
 4.762948e-08
 1.812318e-07
 2.318841e-07
 2.253327e-07
 2.036121e-07
 1.966527e-07
 1.996304e-07
 1.846936e-07
 1.171685e-07
 -1.806234e-07
 -4.274099e-07
 -2.674137e-07
 -9.930947e-09
 1.182667e-07
 1.420548e-07
 9.243110e-08
 0.000000e+00
 0.000000e+00
 8.663882e-09
 1.724624e-08
 2.491272e-08
 2.920312e-08
 2.569921e-08
 1.024709e-08
 -1.554854e-08
 -4.188882e-08
 -5.841211e-08
 -6.288229e-08
 -5.975844e-08
 -5.418917e-08
 -4.916291e-08
 -4.562762e-08
 -4.325383e-08
 -4.104523e-08
 -3.793987e-08
 -3.354229e-08
 -2.866077e-08
 -2.503464e-08
 -2.423630e-08
 -2.669381e-08
 -3.165115e-08
 -3.784615e-08
 -4.421147e-08
 -5.025367e-08
 -5.621308e-08
 -6.330031e-08
 -7.441329e-08
 -9.604446e-08
 -1.425264e-07
 -2.396283e-07
 -2.483517e-07
 6.098074e-08
 3.332667e-07
 3.029008e-07
 2.239862e-07
 1.798186e-07
 1.558436e-07
 1.325827e-07
 8.315414e-08
 -3.467931e-08
 -2.649443e-07
 -3.965142e-07
 -1.189138e-07
 1.825194e-07
 1.860264e-07
 1.205838e-07
 6.158538e-08
 0.000000e+00
 0.000000e+00
 5.242208e-09
 9.910873e-09
 1.304128e-08
 1.303737e-08
 7.964776e-09
 -3.184267e-09
 -1.876304e-08
 -3.436398e-08
 -4.552770e-08
 -5.067832e-08
 -5.126799e-08
 -4.989555e-08
 -4.866311e-08
 -4.849035e-08
 -4.896372e-08
 -4.842936e-08
 -4.460726e-08
 -3.616275e-08
 -2.454769e-08
 -1.386918e-08
 -8.017495e-09
 -8.050858e-09
 -1.240202e-08
 -1.869453e-08
 -2.508252e-08
 -3.063447e-08
 -3.527760e-08
 -3.984633e-08
 -4.675622e-08
 -6.260352e-08
 -1.080084e-07
 -2.612300e-07
 -1.310552e-06
 2.854990e-08
 9.598022e-07
 3.376079e-07
 1.846706e-07
 1.357277e-07
 1.130376e-07
 8.953658e-08
 4.461069e-08
 -5.208336e-08
 -2.754469e-07
 -1.387506e-06
 -7.837027e-08
 8.523530e-07
 2.397665e-07
 9.150595e-08
 3.652177e-08
 0.000000e+00
 0.000000e+00
 2.326013e-09
 3.994856e-09
 4.216531e-09
 2.071341e-09
 -3.203140e-09
 -1.162272e-08
 -2.193733e-08
 -3.185983e-08
 -3.922415e-08
 -4.320875e-08
 -4.462473e-08
 -4.525150e-08
 -4.687780e-08
 -5.048745e-08
 -5.554495e-08
 -5.924017e-08
 -5.642298e-08
 -4.249770e-08
 -1.945169e-08
 2.698329e-09
 1.457118e-08
 1.502085e-08
 8.669040e-09
 3.887570e-10
 -6.929264e-09
 -1.206037e-08
 -1.463889e-08
 -1.460650e-08
 -1.189893e-08
 -6.124766e-09
 4.503823e-09
 2.905307e-08
 1.164874e-08
 1.748276e-05
 3.579012e-08
 7.520878e-08
 6.878422e-08
 7.106095e-08
 7.158804e-08
 6.650634e-08
 5.319646e-08
 3.258884e-08
 1.863330e-08
 -3.339848e-08
 1.741669e-05
 -3.717227e-08
 2.951202e-09
 -1.947701e-09
 -1.415088e-10
 0.000000e+00
 0.000000e+00
 4.126501e-11
 -5.039259e-10
 -2.225596e-09
 -5.641213e-09
 -1.099182e-08
 -1.796101e-08
 -2.552122e-08
 -3.217010e-08
 -3.660245e-08
 -3.847566e-08
 -3.876549e-08
 -3.947010e-08
 -4.286068e-08
 -5.064915e-08
 -6.301238e-08
 -7.651533e-08
 -8.056958e-08
 -5.969321e-08
 -1.330702e-08
 3.130764e-08
 4.960700e-08
 4.480127e-08
 3.126692e-08
 1.822692e-08
 8.904075e-09
 3.917027e-09
 3.390915e-09
 8.000232e-09
 2.004849e-08
 4.622702e-08
 1.073073e-07
 2.787745e-07
 9.241926e-07
 1.838553e-08
 -1.295683e-06
 -2.237712e-07
 -5.159157e-08
 8.724884e-09