<VTKFile type="UnstructuredGrid"  version="0.1"   >
<UnstructuredGrid>  
<Piece  NumberOfPoints="     2601"  NumberOfCells="     5000">  
<Points>  
<DataArray  type="Float64"  NumberOfComponents="3"  format="ascii">  
 0.000000 0.000000 0.000000 
 0.020000 0.000000 0.000000 
 0.040000 0.000000 0.000000 
 0.060000 0.000000 0.000000 
 0.080000 0.000000 0.000000 
 0.100000 0.000000 0.000000 
 0.120000 0.000000 0.000000 
 0.140000 0.000000 0.000000 
 0.160000 0.000000 0.000000 
 0.180000 0.000000 0.000000 
 0.200000 0.000000 0.000000 
 0.220000 0.000000 0.000000 
 0.240000 0.000000 0.000000 
 0.260000 0.000000 0.000000 
 0.280000 0.000000 0.000000 
 0.300000 0.000000 0.000000 
 0.320000 0.000000 0.000000 
 0.340000 0.000000 0.000000 
 0.360000 0.000000 0.000000 
 0.380000 0.000000 0.000000 
 0.400000 0.000000 0.000000 
 0.420000 0.000000 0.000000 
 0.440000 0.000000 0.000000 
 0.460000 0.000000 0.000000 
 0.480000 0.000000 0.000000 
 0.500000 0.000000 0.000000 
 0.520000 0.000000 0.000000 
 0.540000 0.000000 0.000000 
 0.560000 0.000000 0.000000 
 0.580000 0.000000 0.000000 
 0.600000 0.000000 0.000000 
 0.620000 0.000000 0.000000 
 0.640000 0.000000 0.000000 
 0.660000 0.000000 0.000000 
 0.680000 0.000000 0.000000 
 0.700000 0.000000 0.000000 
 0.720000 0.000000 0.000000 
 0.740000 0.000000 0.000000 
 0.760000 0.000000 0.000000 
 0.780000 0.000000 0.000000 
 0.800000 0.000000 0.000000 
 0.820000 0.000000 0.000000 
 0.840000 0.000000 0.000000 
 0.860000 0.000000 0.000000 
 0.880000 0.000000 0.000000 
 0.900000 0.000000 0.000000 
 0.920000 0.000000 0.000000 
 0.940000 0.000000 0.000000 
 0.960000 0.000000 0.000000 
 0.980000 0.000000 0.000000 
 1.000000 0.000000 0.000000 
 0.000000 0.020000 0.000000 
 0.020000 0.020000 0.000000 
 0.040000 0.020000 0.000000 
 0.060000 0.020000 0.000000 
 0.080000 0.020000 0.000000 
 0.100000 0.020000 0.000000 
 0.120000 0.020000 0.000000 
 0.140000 0.020000 0.000000 
 0.160000 0.020000 0.000000 
 0.180000 0.020000 0.000000 
 0.200000 0.020000 0.000000 
 0.220000 0.020000 0.000000 
 0.240000 0.020000 0.000000 
 0.260000 0.020000 0.000000 
 0.280000 0.020000 0.000000 
 0.300000 0.020000 0.000000 
 0.320000 0.020000 0.000000 
 0.340000 0.020000 0.000000 
 0.360000 0.020000 0.000000 
 0.380000 0.020000 0.000000 
 0.400000 0.020000 0.000000 
 0.420000 0.020000 0.000000 
 0.440000 0.020000 0.000000 
 0.460000 0.020000 0.000000 
 0.480000 0.020000 0.000000 
 0.500000 0.020000 0.000000 
 0.520000 0.020000 0.000000 
 0.540000 0.020000 0.000000 
 0.560000 0.020000 0.000000 
 0.580000 0.020000 0.000000 
 0.600000 0.020000 0.000000 
 0.620000 0.020000 0.000000 
 0.640000 0.020000 0.000000 
 0.660000 0.020000 0.000000 
 0.680000 0.020000 0.000000 
 0.700000 0.020000 0.000000 
 0.720000 0.020000 0.000000 
 0.740000 0.020000 0.000000 
 0.760000 0.020000 0.000000 
 0.780000 0.020000 0.000000 
 0.800000 0.020000 0.000000 
 0.820000 0.020000 0.000000 
 0.840000 0.020000 0.000000 
 0.860000 0.020000 0.000000 
 0.880000 0.020000 0.000000 
 0.900000 0.020000 0.000000 
 0.920000 0.020000 0.000000 
 0.940000 0.020000 0.000000 
 0.960000 0.020000 0.000000 
 0.980000 0.020000 0.000000 
 1.000000 0.020000 0.000000 
 0.000000 0.040000 0.000000 
 0.020000 0.040000 0.000000 
 0.040000 0.040000 0.000000 
 0.060000 0.040000 0.000000 
 0.080000 0.040000 0.000000 
 0.100000 0.040000 0.000000 
 0.120000 0.040000 0.000000 
 0.140000 0.040000 0.000000 
 0.160000 0.040000 0.000000 
 0.180000 0.040000 0.000000 
 0.200000 0.040000 0.000000 
 0.220000 0.040000 0.000000 
 0.240000 0.040000 0.000000 
 0.260000 0.040000 0.000000 
 0.280000 0.040000 0.000000 
 0.300000 0.040000 0.000000 
 0.320000 0.040000 0.000000 
 0.340000 0.040000 0.000000 
 0.360000 0.040000 0.000000 
 0.380000 0.040000 0.000000 
 0.400000 0.040000 0.000000 
 0.420000 0.040000 0.000000 
 0.440000 0.040000 0.000000 
 0.460000 0.040000 0.000000 
 0.480000 0.040000 0.000000 
 0.500000 0.040000 0.000000 
 0.520000 0.040000 0.000000 
 0.540000 0.040000 0.000000 
 0.560000 0.040000 0.000000 
 0.580000 0.040000 0.000000 
 0.600000 0.040000 0.000000 
 0.620000 0.040000 0.000000 
 0.640000 0.040000 0.000000 
 0.660000 0.040000 0.000000 
 0.680000 0.040000 0.000000 
 0.700000 0.040000 0.000000 
 0.720000 0.040000 0.000000 
 0.740000 0.040000 0.000000 
 0.760000 0.040000 0.000000 
 0.780000 0.040000 0.000000 
 0.800000 0.040000 0.000000 
 0.820000 0.040000 0.000000 
 0.840000 0.040000 0.000000 
 0.860000 0.040000 0.000000 
 0.880000 0.040000 0.000000 
 0.900000 0.040000 0.000000 
 0.920000 0.040000 0.000000 
 0.940000 0.040000 0.000000 
 0.960000 0.040000 0.000000 
 0.980000 0.040000 0.000000 
 1.000000 0.040000 0.000000 
 0.000000 0.060000 0.000000 
 0.020000 0.060000 0.000000 
 0.040000 0.060000 0.000000 
 0.060000 0.060000 0.000000 
 0.080000 0.060000 0.000000 
 0.100000 0.060000 0.000000 
 0.120000 0.060000 0.000000 
 0.140000 0.060000 0.000000 
 0.160000 0.060000 0.000000 
 0.180000 0.060000 0.000000 
 0.200000 0.060000 0.000000 
 0.220000 0.060000 0.000000 
 0.240000 0.060000 0.000000 
 0.260000 0.060000 0.000000 
 0.280000 0.060000 0.000000 
 0.300000 0.060000 0.000000 
 0.320000 0.060000 0.000000 
 0.340000 0.060000 0.000000 
 0.360000 0.060000 0.000000 
 0.380000 0.060000 0.000000 
 0.400000 0.060000 0.000000 
 0.420000 0.060000 0.000000 
 0.440000 0.060000 0.000000 
 0.460000 0.060000 0.000000 
 0.480000 0.060000 0.000000 
 0.500000 0.060000 0.000000 
 0.520000 0.060000 0.000000 
 0.540000 0.060000 0.000000 
 0.560000 0.060000 0.000000 
 0.580000 0.060000 0.000000 
 0.600000 0.060000 0.000000 
 0.620000 0.060000 0.000000 
 0.640000 0.060000 0.000000 
 0.660000 0.060000 0.000000 
 0.680000 0.060000 0.000000 
 0.700000 0.060000 0.000000 
 0.720000 0.060000 0.000000 
 0.740000 0.060000 0.000000 
 0.760000 0.060000 0.000000 
 0.780000 0.060000 0.000000 
 0.800000 0.060000 0.000000 
 0.820000 0.060000 0.000000 
 0.840000 0.060000 0.000000 
 0.860000 0.060000 0.000000 
 0.880000 0.060000 0.000000 
 0.900000 0.060000 0.000000 
 0.920000 0.060000 0.000000 
 0.940000 0.060000 0.000000 
 0.960000 0.060000 0.000000 
 0.980000 0.060000 0.000000 
 1.000000 0.060000 0.000000 
 0.000000 0.080000 0.000000 
 0.020000 0.080000 0.000000 
 0.040000 0.080000 0.000000 
 0.060000 0.080000 0.000000 
 0.080000 0.080000 0.000000 
 0.100000 0.080000 0.000000 
 0.120000 0.080000 0.000000 
 0.140000 0.080000 0.000000 
 0.160000 0.080000 0.000000 
 0.180000 0.080000 0.000000 
 0.200000 0.080000 0.000000 
 0.220000 0.080000 0.000000 
 0.240000 0.080000 0.000000 
 0.260000 0.080000 0.000000 
 0.280000 0.080000 0.000000 
 0.300000 0.080000 0.000000 
 0.320000 0.080000 0.000000 
 0.340000 0.080000 0.000000 
 0.360000 0.080000 0.000000 
 0.380000 0.080000 0.000000 
 0.400000 0.080000 0.000000 
 0.420000 0.080000 0.000000 
 0.440000 0.080000 0.000000 
 0.460000 0.080000 0.000000 
 0.480000 0.080000 0.000000 
 0.500000 0.080000 0.000000 
 0.520000 0.080000 0.000000 
 0.540000 0.080000 0.000000 
 0.560000 0.080000 0.000000 
 0.580000 0.080000 0.000000 
 0.600000 0.080000 0.000000 
 0.620000 0.080000 0.000000 
 0.640000 0.080000 0.000000 
 0.660000 0.080000 0.000000 
 0.680000 0.080000 0.000000 
 0.700000 0.080000 0.000000 
 0.720000 0.080000 0.000000 
 0.740000 0.080000 0.000000 
 0.760000 0.080000 0.000000 
 0.780000 0.080000 0.000000 
 0.800000 0.080000 0.000000 
 0.820000 0.080000 0.000000 
 0.840000 0.080000 0.000000 
 0.860000 0.080000 0.000000 
 0.880000 0.080000 0.000000 
 0.900000 0.080000 0.000000 
 0.920000 0.080000 0.000000 
 0.940000 0.080000 0.000000 
 0.960000 0.080000 0.000000 
 0.980000 0.080000 0.000000 
 1.000000 0.080000 0.000000 
 0.000000 0.100000 0.000000 
 0.020000 0.100000 0.000000 
 0.040000 0.100000 0.000000 
 0.060000 0.100000 0.000000 
 0.080000 0.100000 0.000000 
 0.100000 0.100000 0.000000 
 0.120000 0.100000 0.000000 
 0.140000 0.100000 0.000000 
 0.160000 0.100000 0.000000 
 0.180000 0.100000 0.000000 
 0.200000 0.100000 0.000000 
 0.220000 0.100000 0.000000 
 0.240000 0.100000 0.000000 
 0.260000 0.100000 0.000000 
 0.280000 0.100000 0.000000 
 0.300000 0.100000 0.000000 
 0.320000 0.100000 0.000000 
 0.340000 0.100000 0.000000 
 0.360000 0.100000 0.000000 
 0.380000 0.100000 0.000000 
 0.400000 0.100000 0.000000 
 0.420000 0.100000 0.000000 
 0.440000 0.100000 0.000000 
 0.460000 0.100000 0.000000 
 0.480000 0.100000 0.000000 
 0.500000 0.100000 0.000000 
 0.520000 0.100000 0.000000 
 0.540000 0.100000 0.000000 
 0.560000 0.100000 0.000000 
 0.580000 0.100000 0.000000 
 0.600000 0.100000 0.000000 
 0.620000 0.100000 0.000000 
 0.640000 0.100000 0.000000 
 0.660000 0.100000 0.000000 
 0.680000 0.100000 0.000000 
 0.700000 0.100000 0.000000 
 0.720000 0.100000 0.000000 
 0.740000 0.100000 0.000000 
 0.760000 0.100000 0.000000 
 0.780000 0.100000 0.000000 
 0.800000 0.100000 0.000000 
 0.820000 0.100000 0.000000 
 0.840000 0.100000 0.000000 
 0.860000 0.100000 0.000000 
 0.880000 0.100000 0.000000 
 0.900000 0.100000 0.000000 
 0.920000 0.100000 0.000000 
 0.940000 0.100000 0.000000 
 0.960000 0.100000 0.000000 
 0.980000 0.100000 0.000000 
 1.000000 0.100000 0.000000 
 0.000000 0.120000 0.000000 
 0.020000 0.120000 0.000000 
 0.040000 0.120000 0.000000 
 0.060000 0.120000 0.000000 
 0.080000 0.120000 0.000000 
 0.100000 0.120000 0.000000 
 0.120000 0.120000 0.000000 
 0.140000 0.120000 0.000000 
 0.160000 0.120000 0.000000 
 0.180000 0.120000 0.000000 
 0.200000 0.120000 0.000000 
 0.220000 0.120000 0.000000 
 0.240000 0.120000 0.000000 
 0.260000 0.120000 0.000000 
 0.280000 0.120000 0.000000 
 0.300000 0.120000 0.000000 
 0.320000 0.120000 0.000000 
 0.340000 0.120000 0.000000 
 0.360000 0.120000 0.000000 
 0.380000 0.120000 0.000000 
 0.400000 0.120000 0.000000 
 0.420000 0.120000 0.000000 
 0.440000 0.120000 0.000000 
 0.460000 0.120000 0.000000 
 0.480000 0.120000 0.000000 
 0.500000 0.120000 0.000000 
 0.520000 0.120000 0.000000 
 0.540000 0.120000 0.000000 
 0.560000 0.120000 0.000000 
 0.580000 0.120000 0.000000 
 0.600000 0.120000 0.000000 
[...]
<PointData  Scalars="U"> 
<DataArray  type="Float64"  Name="U"  format="ascii"> 
 0.000000e+00
 0.000000e+00
 0.000000e+00
 0.000000e+00
 0.000000e+00
 0.000000e+00
 0.000000e+00
 0.000000e+00
 0.000000e+00
 0.000000e+00
 0.000000e+00
 0.000000e+00
 0.000000e+00
 0.000000e+00
 0.000000e+00
 0.000000e+00
 0.000000e+00
 0.000000e+00
 0.000000e+00
 0.000000e+00
 0.000000e+00
 0.000000e+00
 0.000000e+00
 0.000000e+00
 0.000000e+00
 0.000000e+00
 0.000000e+00
 0.000000e+00
 0.000000e+00
 0.000000e+00
 0.000000e+00
 0.000000e+00
 0.000000e+00
 0.000000e+00
 0.000000e+00
 0.000000e+00
 0.000000e+00
 0.000000e+00
 0.000000e+00
 0.000000e+00
 0.000000e+00
 0.000000e+00
 0.000000e+00
 0.000000e+00
 0.000000e+00
 0.000000e+00
 0.000000e+00
 0.000000e+00
 0.000000e+00
 0.000000e+00
 0.000000e+00
 0.000000e+00
 3.004999e-11
 4.879571e-10
 1.678031e-09
 3.679978e-09
 6.319376e-09
 9.254710e-09
 1.215705e-08
 1.488283e-08
 1.754791e-08
 2.049224e-08
 2.417682e-08
 2.898659e-08
 3.459050e-08
 3.724959e-08
 1.777795e-08
 -1.153137e-07
 -1.199176e-06
 2.506750e-08
 8.513529e-07
 2.088505e-07
 7.786481e-08
 1.333585e-08
 -2.557013e-07
 -2.420820e-06
 5.829163e-08
 1.860686e-06
 7.255869e-07
 1.770357e-05
 1.719649e-05
 -3.962778e-07
 -2.670036e-07
 -2.045201e-07
 -2.055468e-07
 -2.399578e-07
 -2.368222e-07
 -1.351414e-07
 -5.611728e-09
 4.729139e-08
 2.903445e-08
 -4.328521e-09
 -1.243346e-08
 1.330952e-08
 5.596774e-08
 9.357491e-08
 1.085260e-07
 9.577743e-08
 6.834869e-08
 4.056258e-08
 1.695606e-08
 0.000000e+00
 0.000000e+00
 -3.887942e-10
 2.043484e-10
 2.498220e-09
 6.691641e-09
 1.234515e-08
 1.857654e-08
 2.453722e-08
 2.986532e-08
 3.483821e-08
 4.023977e-08
 4.714856e-08
 5.678698e-08
 7.036605e-08
 8.861415e-08
 1.106953e-07
 1.364200e-07
 9.627520e-08
 1.752262e-05
 3.923603e-08
 7.849294e-08
 1.069309e-07
 1.623345e-07
 2.217945e-07
 1.330623e-07
 3.495254e-05
 1.298220e-07
 1.106376e-06
 8.660576e-07
 -1.354196e-06
 -1.581961e-06
 -4.614625e-07
 -3.424026e-07
 -3.691278e-07
 -5.141111e-07
 -6.041076e-07
 -3.055048e-07
 9.303433e-08
 1.725330e-07
 6.897072e-08
 -3.957831e-08
 -6.363187e-08
 9.512652e-09
 1.176344e-07
 2.117668e-07
 2.488219e-07
 2.060559e-07
 1.350043e-07
 7.554067e-08
 3.286575e-08
 0.000000e+00
 0.000000e+00
 -1.832831e-09
 -1.870111e-09
 1.302629e-09
 8.159988e-09
 1.779945e-08
 2.826027e-08
 3.766546e-08
 4.528919e-08
 5.174625e-08
 5.850300e-08
 6.739636e-08
 8.058972e-08
 1.012122e-07
 1.356799e-07
 2.027389e-07
 3.740868e-07
 1.010751e-06
 9.255018e-08
 -1.223127e-06
 -1.257536e-07
 1.133795e-07
 3.138976e-07
 6.873112e-07
 1.954782e-06
 4.832038e-09
 -3.647930e-06
 -2.789494e-07
 -3.922072e-07
 -2.428112e-07
 2.165592e-07
 -3.443910e-07
 -3.686438e-07
 -4.160941e-07
 -6.568155e-07
 -1.943724e-06
 -7.162574e-07
 6.926167e-07
 4.486617e-07
 1.027875e-07
 -1.713165e-07
 -2.297301e-07
 -2.138489e-08
 1.927402e-07
 3.872399e-07
 4.890167e-07
 3.383847e-07
 1.832741e-07
 9.248342e-08
 3.857052e-08
 0.000000e+00
 0.000000e+00
 -5.128285e-09
 -7.312208e-09
 -3.831121e-09
 6.640894e-09
 2.244906e-08
 3.922209e-08
 5.281977e-08
 6.201940e-08
 6.840286e-08
 7.466746e-08
 8.347106e-08
 9.738361e-08
 1.196922e-07
 1.561474e-07
 2.179938e-07
 3.197728e-07
 3.780385e-07
 1.390846e-07
 -1.265132e-07
 -5.414216e-08
 1.401950e-07
 3.398242e-07
 5.976348e-07
 7.585663e-07
 3.219245e-07
 -2.500683e-07
 1.723802e-05
 -2.085215e-07
 1.712255e-05
 -4.692868e-07
 -4.219067e-07
 -3.523548e-07
 -2.994092e-07
 -3.370287e-07
 -6.865018e-07
 1.460357e-05
 -3.153964e-07
 1.341569e-06
 -1.114006e-07
 -3.584362e-07
 -1.220439e-06
 3.432002e-08
 -1.219658e-07
 4.864425e-07
 1.147110e-06
 3.898442e-07
 1.639947e-07
 7.457181e-08
 2.997533e-08
 0.000000e+00
 0.000000e+00
 -1.137176e-08
 -1.862839e-08
 -1.651055e-08
 -7.669826e-10
 2.618256e-08
 5.394798e-08
 7.288597e-08
 8.172643e-08
 8.513729e-08
 8.825699e-08
 9.453365e-08
 1.061471e-07
 1.249295e-07
 1.527374e-07
 1.896533e-07
 2.241234e-07
 2.153424e-07
 1.302050e-07
 4.827037e-08
 6.572361e-08
 1.640263e-07
 2.976820e-07
 4.341296e-07
 5.070083e-07
 5.196534e-07
 9.926951e-07
 1.342385e-07
 -6.121950e-07
 -5.409290e-07
 -1.748309e-06
 -5.998434e-07
 -3.075707e-07
 -9.664574e-08
 1.533395e-07
 8.401035e-07
 -1.619761e-07
 3.333621e-05
 -7.742204e-07
 -1.790808e-06
 -5.782528e-07
 5.746616e-07
 1.794559e-05
 4.882091e-07
 1.777573e-05
 1.397643e-07
 8.723238e-08
 3.794377e-08
 1.925882e-08
 8.798736e-09
 0.000000e+00
 0.000000e+00
 -2.144012e-08
 -3.933574e-08
 -4.404735e-08
 -2.110845e-08
 2.927194e-08
 7.928869e-08
 1.041016e-07
 1.068062e-07
 1.018089e-07
 9.847203e-08
 1.002153e-07
 1.077879e-07
 1.210251e-07
 1.388626e-07
 1.576665e-07
 1.681979e-07
 1.569032e-07
 1.227116e-07
 9.403646e-08
 1.039458e-07
 1.583526e-07
 2.430854e-07
 3.331956e-07
 3.990331e-07
 4.418818e-07
 4.314979e-07
 1.774525e-07
 -1.387148e-07
 -4.328847e-07
 -6.520351e-07
 -5.188879e-07
 -2.031616e-07
 9.681221e-08
 3.869429e-07
 7.824014e-07
 1.799536e-06
 -3.377051e-07
 -2.996563e-06
 -9.482143e-07
 1.584562e-05
 -5.358117e-07
 1.027400e-06
 6.249073e-07
 -1.434011e-08
 -1.369098e-06
 -2.972193e-07
 -1.120233e-07
 -4.217179e-08
 -1.334047e-08
 0.000000e+00
 0.000000e+00
 -3.391149e-08
 -7.169805e-08
 -1.016654e-07
 -7.537322e-08
 3.348679e-08
 1.362327e-07
 1.590018e-07
 1.381934e-07
 1.157781e-07
 1.032264e-07
 9.996092e-08
 1.036580e-07
 1.121523e-07
 1.230307e-07
 1.326778e-07
 1.358729e-07
 1.280213e-07
 1.107696e-07
 9.493997e-08
 9.456030e-08
 1.209871e-07
 1.809073e-07
 2.620159e-07
 3.252575e-07
 3.354907e-07
 2.699744e-07
 1.125608e-07
 -9.308751e-08
 -3.039747e-07
 -4.948216e-07
 -4.830109e-07
 -7.485289e-08
 3.342654e-07
 4.797244e-07
 6.120250e-07
 6.225091e-07
 8.146768e-08
 -3.230276e-07
 4.745345e-07
 -8.657676e-08
 1.624940e-05
 1.721470e-05
 -2.617992e-07
 -3.957463e-07
 -5.294779e-07
 -3.774240e-07
 -1.740303e-07
 -6.762246e-08
 -2.123840e-08
 0.000000e+00
 0.000000e+00
 -4.082629e-08
 -1.030362e-07
 -2.158522e-07
 -2.419439e-07
 4.808680e-08
 3.006265e-07
 2.535784e-07
 1.648905e-07
 1.184716e-07
 9.859312e-08
 9.281581e-08
 9.470295e-08
 1.006872e-07
 1.080891e-07
 1.141088e-07
 1.156900e-07
 1.104309e-07
 9.792058e-08
 7.964749e-08
 5.816616e-08
 4.701326e-08
 9.121179e-08
 2.103826e-07
 3.080161e-07
 3.014674e-07
 2.169419e-07
 9.272125e-08
 -4.675103e-08
 -1.915205e-07
 -3.927351e-07
 -1.426116e-06
 -2.023989e-08
 1.006388e-06
 4.894796e-07
 4.180349e-07
 3.538612e-07
 1.998909e-07
 1.591834e-07
 4.176529e-07
 1.076448e-06
 5.841729e-07
 -1.667427e-06
 -1.936252e-06
 -7.787146e-07
 -5.638225e-07
 -3.415862e-07
 -1.342804e-07
 -3.422852e-08
 -6.128977e-09
 0.000000e+00
 0.000000e+00
 -2.827978e-08
 -8.391792e-08
 -2.476892e-07
 -1.308716e-06
 1.774248e-08
 9.366114e-07
 3.042624e-07
 1.454052e-07
 9.617413e-08
 8.086307e-08
 7.844160e-08
 8.177442e-08
 8.776242e-08
 9.445384e-08
 1.000662e-07
 1.027265e-07
 1.004781e-07
 9.080949e-08
 6.834228e-08
 1.933450e-08
 -8.316840e-08
 -1.033236e-07
 1.844833e-07
 4.219024e-07
 3.422923e-07
 2.012504e-07
 8.684009e-08
 -2.079467e-09
 -5.458182e-08
 -4.825146e-08
 -3.696327e-08
 1.749407e-05
 1.162679e-07
 2.163885e-07
 2.448912e-07
 2.410479e-07
 2.129083e-07
 2.276069e-07
 3.262644e-07
 3.893324e-07
 9.377675e-08
 -5.094495e-07
 -8.425997e-07
 -8.323715e-07
 -6.943140e-07
 -2.945379e-07
 4.635650e-08
 6.793105e-08
 2.474489e-08
 0.000000e+00
 0.000000e+00
 5.667070e-09
 1.374911e-08
 3.367712e-08
 1.001656e-08
 1.747393e-05
 1.983205e-08
 5.344396e-08
 4.374388e-08
 4.632609e-08
 5.199127e-08
 5.884752e-08
 6.634127e-08
 7.414498e-08
 8.187338e-08
 8.897146e-08
 9.462937e-08
 9.756427e-08
 9.519730e-08
 8.079400e-08
 3.321969e-08
 -1.270036e-07
 -1.190048e-06
 1.265519e-07
 1.025098e-06
 3.600864e-07
 1.569633e-07
 5.858200e-08
 7.751003e-09
 2.559498e-08
 2.051245e-07
 9.103015e-07
 8.188266e-08
 -1.172871e-06
 -6.835265e-08
 1.137391e-07
 1.659938e-07
 1.786751e-07
 1.902453e-07
 2.015129e-07
 1.549915e-07
 -2.261442e-08
 -2.875767e-07
 -4.989890e-07
 -6.766970e-07
 -1.679065e-06
 -2.767611e-07
 7.182962e-07
 1.500702e-07
 3.296194e-08
 0.000000e+00
 0.000000e+00
 3.789619e-08
 1.037972e-07
 2.761609e-07
 9.200960e-07
 1.149885e-08
 -1.305736e-06
 -2.365312e-07
 -6.596380e-08
 -5.873537e-09
 2.207431e-08
 3.863920e-08
 5.058520e-08
 6.057368e-08
 6.988315e-08
 7.925150e-08
 8.908399e-08
 9.940659e-08
 1.098200e-07
 1.197682e-07
 1.298059e-07
 1.477288e-07
 1.165135e-07
 1.756572e-05
 8.826351e-08
 8.892056e-08
 3.721403e-08
 -7.318624e-09
 -4.168792e-08
 -3.155794e-08
 9.697555e-08
 2.871100e-07
 1.812818e-07
 -4.657766e-08
 -1.536967e-08
 8.414935e-08
 1.259890e-07
 1.401229e-07
 1.417764e-07
 1.273260e-07
 7.623360e-08
 -2.539577e-08
 -1.515879e-07
 -2.467522e-07
 -2.718678e-07
 -2.877680e-07
 1.722630e-05
 -1.501553e-07
 -4.514946e-08
 -1.570078e-08
 0.000000e+00
 0.000000e+00
 4.792421e-08
 1.146206e-07
 2.189692e-07
 2.786743e-07
 3.660665e-08
 -2.448034e-07
 -2.120134e-07
 -9.498666e-08
 -3.244280e-08
 1.805560e-09
 2.250551e-08
 3.659580e-08
 4.760610e-08
 5.778546e-08
 6.900444e-08
 8.296951e-08
 1.011118e-07
 1.250156e-07
 1.593782e-07
 2.227402e-07
 3.891210e-07
 1.021583e-06
 9.499657e-08
 -1.247536e-06
 -2.118435e-07
 -8.432966e-08
 -7.948654e-08
 -1.252434e-07
 -2.129730e-07
 -1.904293e-07
 1.355985e-07
 3.489936e-07
 2.336380e-07
 1.325380e-07
 1.110718e-07
 1.110872e-07
 1.108803e-07
 1.058493e-07
 9.028459e-08
 5.620389e-08
 2.986569e-09
 -5.160540e-08
 -6.782132e-08
 4.189921e-08
 6.524574e-07
 -2.217855e-07
 -1.419716e-06
 -2.402366e-07
 -4.377477e-08
 0.000000e+00
 0.000000e+00
 4.024369e-08
 8.364514e-08
 1.207674e-07
 1.109531e-07
 1.855856e-08
 -8.222690e-08
 -1.027836e-07
 -6.992248e-08
 -3.317477e-08
 -6.126411e-09
 1.247786e-08
 2.550338e-08
 3.542455e-08
 4.463235e-08
 5.595533e-08
 7.264217e-08
 9.740740e-08
 1.314928e-07
 1.765193e-07
 2.402715e-07
 3.364821e-07
 3.816930e-07
 1.191004e-07
 -1.886756e-07
 -1.887551e-07
 -1.135384e-07
 -1.088224e-07
 -1.688620e-07
 -3.451311e-07
 -1.376439e-06
 4.167671e-08
 1.027414e-06
 3.859342e-07
 1.958816e-07
 1.263674e-07
 9.836671e-08
 8.587262e-08
 7.974548e-08
 7.291837e-08
 5.874607e-08
 3.622579e-08
 1.462563e-08
 1.100244e-08
 3.422753e-08
 -2.648094e-08
 -2.963090e-07
 -2.889200e-07
 -8.110172e-09
 5.037845e-08
 0.000000e+00
 0.000000e+00
 2.786205e-08
 5.252757e-08
 6.551020e-08
 5.321602e-08
 1.311018e-08
 -2.968772e-08
 -4.737655e-08
 -4.003765e-08
 -2.268606e-08
 -5.565655e-09
 7.923159e-09
 1.749893e-08
 2.404428e-08
 2.946637e-08
 3.746532e-08
 5.390816e-08
 8.430017e-08
 1.280671e-07
 1.770275e-07
 2.218836e-07
 2.494027e-07
 2.214815e-07
 1.057513e-07
 -2.191525e-08
 -7.265914e-08
 -7.445557e-08
 -8.132741e-08
 -1.195629e-07
 -2.084132e-07
 -2.673058e-07
 1.746844e-05
 2.555542e-07
 2.486366e-07
 1.593168e-07
 1.076595e-07
 7.248839e-08
 5.446015e-08
 5.421706e-08
 6.385492e-08
 7.157291e-08
 7.011154e-08
 6.246513e-08
 5.488392e-08
 2.362678e-08
 -1.551594e-07
 -1.314225e-06
 -9.811499e-08
 7.868477e-07
 1.671244e-07
 0.000000e+00
 0.000000e+00
 1.770893e-08
 3.167521e-08
 3.706091e-08
 2.964275e-08
 1.106872e-08
 -8.787615e-09
 -1.947455e-08
 -1.865967e-08
 -1.074103e-08
 -9.362465e-10
 7.427095e-09
 1.266952e-08
 1.408777e-08
 1.216984e-08
 1.061257e-08
 2.009237e-08
 5.618775e-08
 1.194944e-07
 1.819690e-07
 2.155350e-07
 2.137545e-07
 1.761477e-07
 1.083147e-07
 3.793473e-08
 -6.369962e-09
 -2.291980e-08
 -2.338495e-08
 -1.632458e-08
 -1.421106e-08
 -4.551290e-07
 -7.562020e-08
 -4.776041e-07
 2.488176e-08
 9.095949e-08
 7.660282e-08
 2.888153e-08
 3.453225e-09
 1.808416e-08
 5.751817e-08
 9.561662e-08
 1.114793e-07
 1.062697e-07
 1.070317e-07
 1.260513e-07
 1.409691e-07
 7.061628e-08
 1.747246e-05
 -1.981881e-08
 5.378292e-09
 0.000000e+00
 0.000000e+00
 1.103455e-08
 1.936372e-08
 2.245288e-08
 1.898673e-08
 1.045227e-08
 1.188992e-09
 -4.319979e-09
 -4.379352e-09
 -2.804972e-10
 5.411945e-09
 1.018906e-08
 1.181472e-08
 7.919834e-09
 -4.238465e-09
 -2.574569e-08
 -4.281205e-08
 -5.758117e-09
 1.120765e-07
 2.211161e-07
 2.446614e-07
 2.140797e-07
 1.664039e-07
 1.139019e-07
 6.538116e-08
 3.005806e-08
 1.393503e-08
 2.663439e-08
 8.813406e-08
 2.127141e-07
 2.164577e-07
 1.732073e-05
 -4.761894e-07
 -1.710598e-07
 1.285579e-07
 7.651648e-08
 -4.437477e-08
 -9.368425e-08
 -4.423256e-08
 5.322887e-08
 1.456676e-07
 1.801849e-07
 1.411502e-07
 1.317085e-07
 2.377382e-07
 4.521310e-07
 1.064351e-06
 9.257592e-08
 -1.268778e-06
 -2.082649e-07
 0.000000e+00
 0.000000e+00
 7.063918e-09
 1.246950e-08
 1.491220e-08
 1.397584e-08
 1.059781e-08
 6.845436e-09
 4.827388e-09
 5.552350e-09
 8.632335e-09
 1.273804e-08
 1.607908e-08
 1.637847e-08
 1.007291e-08
 -9.768901e-09
 -5.784288e-08
 -1.602837e-07
 -1.784179e-07
 1.173972e-07
 3.727934e-07
 3.238934e-07
 2.262148e-07
 1.618788e-07
 1.157612e-07
 7.863265e-08
 4.780814e-08
 2.449612e-08
 2.757226e-08
 1.224105e-07
 3.909675e-07
 1.044599e-06
 -1.303043e-07
 -2.667978e-06
 -3.590963e-07
 6.941451e-07
 6.652409e-08
 -1.928966e-07
 -3.093442e-07
 -1.497609e-07
 5.224994e-08
 2.558248e-07
 3.526849e-07
 1.420573e-07
 1.092754e-08
 2.724007e-07
 5.666690e-07
 5.346408e-07
 1.737394e-07
 -1.676827e-07
 -1.477156e-07
 0.000000e+00
 0.000000e+00
 4.803200e-09
 8.685637e-09
 1.099744e-08
 1.162517e-08
 1.112666e-08
 1.055455e-08
 1.097478e-08
 1.297323e-08
 1.645831e-08
 2.076806e-08
 2.482827e-08
 2.705156e-08
 2.455910e-08
 1.047646e-08
 -3.598337e-08
 -1.931569e-07
 -1.249268e-06
 8.052037e-08
 1.000632e-06
 3.664556e-07
 2.015388e-07
 1.412128e-07
 1.096844e-07
 8.583505e-08
 5.986645e-08
 1.879835e-08
 -5.909165e-08
 -2.721955e-08
 3.501355e-07
 6.225399e-07
 2.764267e-07
 -1.973376e-07
 1.719938e-05
 -1.882431e-07
 -1.462389e-07
 -2.915624e-07
 -1.379496e-06
 -2.100294e-07
 -3.631740e-07
 3.024514e-07
 1.000707e-06
 1.493358e-07
 -1.087849e-06
 1.903888e-07
 1.095797e-06
 4.210255e-07
 1.491700e-07
 -9.959565e-09
 -4.294603e-08
 0.000000e+00
 0.000000e+00
 3.507820e-09
 6.565000e-09
 8.888264e-09
 1.049339e-08
 1.173175e-08
 1.318135e-08
 1.542121e-08
 1.881094e-08
 2.339804e-08
 2.897825e-08
 3.524021e-08
 4.191503e-08
 4.891541e-08
 5.659212e-08
 6.678791e-08
 8.873460e-08
 6.687234e-08
 1.753218e-05
 7.873801e-08
 1.118092e-07
 9.987187e-08
 9.817335e-08
 9.730755e-08
 9.453754e-08
 8.493984e-08
 5.013725e-08
 -8.598584e-08
 -1.111538e-06
 2.487221e-07
 1.173866e-06
 5.613046e-07
 8.865701e-07
 -1.295884e-07
 -1.428050e-06
 -2.863190e-07
 -3.290877e-08
 3.738680e-08
 1.754650e-05
 6.949072e-08
 1.756063e-05
 9.197195e-08
 1.365052e-07
 9.878427e-08
 1.756098e-05
 9.939716e-08
 1.046514e-07
 4.367020e-08
 -2.110998e-09
 -1.460652e-08
 0.000000e+00
 0.000000e+00
 2.691801e-09
 5.230759e-09
 7.557629e-09
 9.769901e-09
 1.212568e-08
 1.497718e-08
 1.866102e-08
 2.340696e-08
 2.932697e-08
 3.651461e-08
 4.526787e-08
 5.651235e-08
 7.276724e-08
 1.009339e-07
 1.620447e-07
 3.319526e-07
 9.747418e-07
 6.592057e-08
 -1.250753e-06
 -1.802683e-07
 -7.755481e-09
 5.497381e-08
 8.653497e-08
 1.084082e-07
 1.287025e-07
 1.527800e-07
 1.911383e-07
 1.866733e-07
 1.766497e-05
 2.160475e-07
 2.579960e-07
 2.054073e-07
 -9.487902e-08
 -3.303507e-07
 -1.145900e-07
 3.042594e-07
 1.093757e-06
 3.669729e-07
 -3.096052e-07
 -1.403512e-07
 -1.242839e-06
 4.131068e-08
 8.678075e-07
 1.819151e-08
 -1.283123e-06
 -2.215653e-07
 -7.226031e-08
 -3.389717e-08
 -1.701141e-08
 0.000000e+00
 0.000000e+00
 2.045064e-09
 4.136452e-09
 6.370511e-09
 8.919994e-09
 1.202074e-08
 1.592046e-08
 2.081591e-08
 2.682264e-08
 3.401776e-08
 4.257807e-08
 5.303150e-08
 6.669138e-08
 8.649370e-08
 1.187247e-07
 1.759664e-07
 2.742790e-07
 3.302257e-07
 8.642631e-08
 -1.944641e-07
 -1.585080e-07
 -3.534985e-08
 3.650558e-08
 8.381300e-08
 1.234728e-07
 1.691114e-07
 2.449459e-07
 4.278384e-07
 1.080663e-06
 1.752917e-07
 -1.150537e-06
 -1.162133e-07
 -4.949758e-08
 -2.081141e-07
 -2.893529e-07
 5.782849e-08
 4.768380e-07
 5.839069e-07
 3.812735e-07
 1.342847e-07
 -6.877191e-08
 -1.937750e-07
 -1.510532e-08
 1.770920e-07
 -1.080482e-09
 -2.564624e-07
 -2.185909e-07
 -1.072857e-07
 -5.284395e-08
 -2.281463e-08
 0.000000e+00
 0.000000e+00
 1.361029e-09
 2.913393e-09
 4.879666e-09
 7.521210e-09
 1.110745e-08
 1.585231e-08
 2.185043e-08
 2.906360e-08
 3.739744e-08
 4.686948e-08
 5.783580e-08
 7.124107e-08
 8.884228e-08
 1.130843e-07
 1.449266e-07
 1.734565e-07
 1.574610e-07
 6.155240e-08
 -3.919569e-08
 -5.503200e-08
 -1.199881e-08
 4.035619e-08
 8.815834e-08
 1.338348e-07
 1.853919e-07
 2.571513e-07
 3.661610e-07
 4.285311e-07
 1.843211e-07
 -1.097524e-07
 -1.128498e-07
 -8.308226e-08
 -2.322094e-07
 -1.290501e-06
 7.250104e-08
 1.058244e-06
 4.681354e-07
 2.686450e-07
 1.246117e-07
 1.372827e-08
 -3.648577e-08
 -4.047163e-09
 2.708881e-08
 -2.845673e-08
 -1.081742e-07
 -1.202095e-07
 -8.616854e-08
 -5.058801e-08
 -2.309651e-08
 0.000000e+00
 0.000000e+00
 4.915636e-10
 1.284048e-09
 2.715944e-09
 5.168597e-09
 9.014192e-09
 1.450605e-08
 2.165778e-08
 3.020095e-08
 3.969476e-08
 4.976472e-08
 6.034152e-08
 7.174745e-08
 8.448706e-08
 9.845744e-08
 1.109349e-07
 1.133032e-07
 9.212409e-08
 4.577671e-08
 1.288878e-09
 -1.098964e-08
 1.065347e-08
 5.050470e-08
 9.532787e-08
 1.393564e-07
 1.829252e-07
 2.279724e-07
 2.652662e-07
 2.544912e-07
 1.596801e-07
 5.347014e-08
 2.190757e-08
 3.812905e-08
 6.648563e-08
 5.071207e-08
 1.753385e-05
 1.074624e-07
 1.562144e-07
 1.290919e-07
 8.604425e-08
 3.983115e-08
 1.127089e-08
 5.622817e-09
 -1.329687e-11
 -2.596020e-08
 -5.724676e-08
 -6.835033e-08
 -5.806018e-08
 -3.901191e-08
 -1.911594e-08
 0.000000e+00
 0.000000e+00
 -6.716413e-10
 -9.758663e-10
 -4.682268e-10
 1.403797e-09
 5.232494e-09
 1.144817e-08
 2.004083e-08
 3.039860e-08
 4.147126e-08
 5.222606e-08
 6.206253e-08
 7.085183e-08
 7.852253e-08
 8.428525e-08
 8.569110e-08
 7.835881e-08
 5.848822e-08
 2.899752e-08
 2.929057e-09
 -3.822077e-09
 1.611947e-08
 5.702442e-08
 1.043671e-07
 1.457956e-07
 1.776777e-07
 2.001279e-07
 2.083348e-07
 1.916763e-07
 1.503914e-07
 1.124513e-07
 1.103938e-07
 1.619622e-07
 3.281538e-07
 9.688577e-07
 6.435167e-08
 -1.239677e-06
 -1.569389e-07
 1.273936e-08
 5.145705e-08
 4.580541e-08
 2.964481e-08
 1.547926e-08
 1.449722e-09
 -1.604589e-08
 -3.251769e-08
 -4.021351e-08
 -3.722625e-08
 -2.716433e-08
 -1.403318e-08
 0.000000e+00
 0.000000e+00
 -2.188208e-09
 -4.026832e-09
 -5.006020e-09
 -4.341767e-09
 -1.012569e-09
 5.902650e-09
 1.657585e-08
 2.988543e-08
 4.364967e-08
 5.569775e-08
 6.485025e-08
 7.096212e-08
 7.417917e-08
 7.407035e-08
 6.913811e-08
 5.712265e-08
 3.655837e-08
 9.406721e-09
 -1.642377e-08
 -2.577485e-08
 -1.096265e-09
 5.761110e-08
 1.211937e-07
 1.625038e-07
 1.808450e-07
 1.849477e-07
 1.777914e-07
 1.598372e-07
 1.385706e-07
 1.305157e-07
 1.497848e-07
 2.013365e-07
 2.890143e-07
 3.276192e-07
 7.112201e-08
 -2.020446e-07
 -1.393829e-07
 4.710402e-10
 5.558704e-08
 5.904282e-08
 4.330271e-08
 2.496633e-08
 8.290229e-09
 -6.475720e-09
 -1.793235e-08
 -2.381353e-08
 -2.339975e-08
 -1.799806e-08
 -9.633147e-09
 0.000000e+00
 0.000000e+00
 -4.026667e-09
 -7.887728e-09
 -1.113881e-08
 -1.275806e-08
 -1.096938e-08
 -3.641268e-09
 1.026833e-08
 2.892250e-08
 4.774169e-08
 6.226169e-08
 7.072889e-08
 7.386013e-08
 7.296298e-08
 6.851427e-08
 5.976323e-08
 4.501446e-08
 2.223150e-08
 -1.019989e-08
 -5.124330e-08
 -8.472139e-08
 -5.904827e-08
 5.396392e-08
 1.664406e-07
 2.034002e-07
 1.966523e-07
 1.804492e-07
 1.594352e-07
 1.333549e-07
 1.130086e-07
 1.189193e-07
 1.576150e-07
 2.029203e-07
 2.158410e-07
 1.547431e-07
 9.089321e-09
 -9.087930e-08
 -2.879240e-08
 7.937741e-08
 1.104116e-07
 8.828870e-08
 5.740747e-08
 3.223508e-08
 1.359544e-08
 -6.945756e-12
 -9.262052e-09
 -1.410473e-08
 -1.466321e-08
 -1.170833e-08
 -6.416326e-09
 0.000000e+00
 0.000000e+00
 -5.985520e-09
 -1.226069e-08
 -1.876282e-08
 -2.448838e-08
 -2.662646e-08
 -2.030670e-08
 -1.341778e-09
 2.782407e-08
 5.668817e-08
 7.533838e-08
 8.201894e-08
 8.061561e-08
 7.507571e-08
 6.709450e-08
 5.632824e-08
 4.099671e-08
 1.780821e-08