<VTKFile type="UnstructuredGrid"  version="0.1"   >
<UnstructuredGrid>  
<Piece  NumberOfPoints="     2601"  NumberOfCells="     5000">  
<Points>  
<DataArray  type="Float64"  NumberOfComponents="3"  format="ascii">  
 0.000000 0.000000 0.000000 
 0.020000 0.000000 0.000000 
 0.040000 0.000000 0.000000 
 0.060000 0.000000 0.000000 
 0.080000 0.000000 0.000000 
 0.100000 0.000000 0.000000 
 0.120000 0.000000 0.000000 
 0.140000 0.000000 0.000000 
 0.160000 0.000000 0.000000 
 0.180000 0.000000 0.000000 
 0.200000 0.000000 0.000000 
 0.220000 0.000000 0.000000 
 0.240000 0.000000 0.000000 
 0.260000 0.000000 0.000000 
 0.280000 0.000000 0.000000 
 0.300000 0.000000 0.000000 
 0.320000 0.000000 0.000000 
 0.340000 0.000000 0.000000 
 0.360000 0.000000 0.000000 
 0.380000 0.000000 0.000000 
 0.400000 0.000000 0.000000 
 0.420000 0.000000 0.000000 
 0.440000 0.000000 0.000000 
 0.460000 0.000000 0.000000 
 0.480000 0.000000 0.000000 
 0.500000 0.000000 0.000000 
 0.520000 0.000000 0.000000 
 0.540000 0.000000 0.000000 
 0.560000 0.000000 0.000000 
 0.580000 0.000000 0.000000 
 0.600000 0.000000 0.000000 
 0.620000 0.000000 0.000000 
 0.640000 0.000000 0.000000 
 0.660000 0.000000 0.000000 
 0.680000 0.000000 0.000000 
 0.700000 0.000000 0.000000 
 0.720000 0.000000 0.000000 
 0.740000 0.000000 0.000000 
 0.760000 0.000000 0.000000 
 0.780000 0.000000 0.000000 
 0.800000 0.000000 0.000000 
 0.820000 0.000000 0.000000 
 0.840000 0.000000 0.000000 
 0.860000 0.000000 0.000000 
 0.880000 0.000000 0.000000 
 0.900000 0.000000 0.000000 
 0.920000 0.000000 0.000000 
 0.940000 0.000000 0.000000 
 0.960000 0.000000 0.000000 
 0.980000 0.000000 0.000000 
 1.000000 0.000000 0.000000 
 0.000000 0.020000 0.000000 
 0.020000 0.020000 0.000000 
 0.040000 0.020000 0.000000 
 0.060000 0.020000 0.000000 
 0.080000 0.020000 0.000000 
 0.100000 0.020000 0.000000 
 0.120000 0.020000 0.000000 
 0.140000 0.020000 0.000000 
 0.160000 0.020000 0.000000 
 0.180000 0.020000 0.000000 
 0.200000 0.020000 0.000000 
 0.220000 0.020000 0.000000 
 0.240000 0.020000 0.000000 
 0.260000 0.020000 0.000000 
 0.280000 0.020000 0.000000 
 0.300000 0.020000 0.000000 
 0.320000 0.020000 0.000000 
 0.340000 0.020000 0.000000 
 0.360000 0.020000 0.000000 
 0.380000 0.020000 0.000000 
 0.400000 0.020000 0.000000 
 0.420000 0.020000 0.000000 
 0.440000 0.020000 0.000000 
 0.460000 0.020000 0.000000 
 0.480000 0.020000 0.000000 
 0.500000 0.020000 0.000000 
 0.520000 0.020000 0.000000 
 0.540000 0.020000 0.000000 
 0.560000 0.020000 0.000000 
 0.580000 0.020000 0.000000 
 0.600000 0.020000 0.000000 
 0.620000 0.020000 0.000000 
 0.640000 0.020000 0.000000 
 0.660000 0.020000 0.000000 
 0.680000 0.020000 0.000000 
 0.700000 0.020000 0.000000 
 0.720000 0.020000 0.000000 
 0.740000 0.020000 0.000000 
 0.760000 0.020000 0.000000 
 0.780000 0.020000 0.000000 
 0.800000 0.020000 0.000000 
 0.820000 0.020000 0.000000 
 0.840000 0.020000 0.000000 
 0.860000 0.020000 0.000000 
 0.880000 0.020000 0.000000 
 0.900000 0.020000 0.000000 
 0.920000 0.020000 0.000000 
 0.940000 0.020000 0.000000 
 0.960000 0.020000 0.000000 
 0.980000 0.020000 0.000000 
 1.000000 0.020000 0.000000 
 0.000000 0.040000 0.000000 
 0.020000 0.040000 0.000000 
 0.040000 0.040000 0.000000 
 0.060000 0.040000 0.000000 
 0.080000 0.040000 0.000000 
 0.100000 0.040000 0.000000 
 0.120000 0.040000 0.000000 
 0.140000 0.040000 0.000000 
 0.160000 0.040000 0.000000 
 0.180000 0.040000 0.000000 
 0.200000 0.040000 0.000000 
 0.220000 0.040000 0.000000 
 0.240000 0.040000 0.000000 
 0.260000 0.040000 0.000000 
 0.280000 0.040000 0.000000 
 0.300000 0.040000 0.000000 
 0.320000 0.040000 0.000000 
 0.340000 0.040000 0.000000 
 0.360000 0.040000 0.000000 
 0.380000 0.040000 0.000000 
 0.400000 0.040000 0.000000 
 0.420000 0.040000 0.000000 
 0.440000 0.040000 0.000000 
 0.460000 0.040000 0.000000 
 0.480000 0.040000 0.000000 
 0.500000 0.040000 0.000000 
 0.520000 0.040000 0.000000 
 0.540000 0.040000 0.000000 
 0.560000 0.040000 0.000000 
 0.580000 0.040000 0.000000 
 0.600000 0.040000 0.000000 
 0.620000 0.040000 0.000000 
 0.640000 0.040000 0.000000 
 0.660000 0.040000 0.000000 
 0.680000 0.040000 0.000000 
 0.700000 0.040000 0.000000 
 0.720000 0.040000 0.000000 
 0.740000 0.040000 0.000000 
 0.760000 0.040000 0.000000 
 0.780000 0.040000 0.000000 
 0.800000 0.040000 0.000000 
 0.820000 0.040000 0.000000 
 0.840000 0.040000 0.000000 
 0.860000 0.040000 0.000000 
 0.880000 0.040000 0.000000 
 0.900000 0.040000 0.000000 
 0.920000 0.040000 0.000000 
 0.940000 0.040000 0.000000 
 0.960000 0.040000 0.000000 
 0.980000 0.040000 0.000000 
 1.000000 0.040000 0.000000 
 0.000000 0.060000 0.000000 
 0.020000 0.060000 0.000000 
 0.040000 0.060000 0.000000 
 0.060000 0.060000 0.000000 
 0.080000 0.060000 0.000000 
 0.100000 0.060000 0.000000 
 0.120000 0.060000 0.000000 
 0.140000 0.060000 0.000000 
 0.160000 0.060000 0.000000 
 0.180000 0.060000 0.000000 
 0.200000 0.060000 0.000000 
 0.220000 0.060000 0.000000 
 0.240000 0.060000 0.000000 
 0.260000 0.060000 0.000000 
 0.280000 0.060000 0.000000 
 0.300000 0.060000 0.000000 
 0.320000 0.060000 0.000000 
 0.340000 0.060000 0.000000 
 0.360000 0.060000 0.000000 
 0.380000 0.060000 0.000000 
 0.400000 0.060000 0.000000 
 0.420000 0.060000 0.000000 
 0.440000 0.060000 0.000000 
 0.460000 0.060000 0.000000 
 0.480000 0.060000 0.000000 
 0.500000 0.060000 0.000000 
 0.520000 0.060000 0.000000 
 0.540000 0.060000 0.000000 
 0.560000 0.060000 0.000000 
 0.580000 0.060000 0.000000 
 0.600000 0.060000 0.000000 
 0.620000 0.060000 0.000000 
 0.640000 0.060000 0.000000 
 0.660000 0.060000 0.000000 
 0.680000 0.060000 0.000000 
 0.700000 0.060000 0.000000 
 0.720000 0.060000 0.000000 
 0.740000 0.060000 0.000000 
 0.760000 0.060000 0.000000 
 0.780000 0.060000 0.000000 
 0.800000 0.060000 0.000000 
 0.820000 0.060000 0.000000 
 0.840000 0.060000 0.000000 
 0.860000 0.060000 0.000000 
 0.880000 0.060000 0.000000 
 0.900000 0.060000 0.000000 
 0.920000 0.060000 0.000000 
 0.940000 0.060000 0.000000 
 0.960000 0.060000 0.000000 
 0.980000 0.060000 0.000000 
 1.000000 0.060000 0.000000 
 0.000000 0.080000 0.000000 
 0.020000 0.080000 0.000000 
 0.040000 0.080000 0.000000 
 0.060000 0.080000 0.000000 
 0.080000 0.080000 0.000000 
 0.100000 0.080000 0.000000 
 0.120000 0.080000 0.000000 
 0.140000 0.080000 0.000000 
 0.160000 0.080000 0.000000 
 0.180000 0.080000 0.000000 
 0.200000 0.080000 0.000000 
 0.220000 0.080000 0.000000 
 0.240000 0.080000 0.000000 
 0.260000 0.080000 0.000000 
 0.280000 0.080000 0.000000 
 0.300000 0.080000 0.000000 
 0.320000 0.080000 0.000000 
 0.340000 0.080000 0.000000 
 0.360000 0.080000 0.000000 
 0.380000 0.080000 0.000000 
 0.400000 0.080000 0.000000 
 0.420000 0.080000 0.000000 
 0.440000 0.080000 0.000000 
 0.460000 0.080000 0.000000 
 0.480000 0.080000 0.000000 
 0.500000 0.080000 0.000000 
 0.520000 0.080000 0.000000 
 0.540000 0.080000 0.000000 
 0.560000 0.080000 0.000000 
 0.580000 0.080000 0.000000 
 0.600000 0.080000 0.000000 
 0.620000 0.080000 0.000000 
 0.640000 0.080000 0.000000 
 0.660000 0.080000 0.000000 
 0.680000 0.080000 0.000000 
 0.700000 0.080000 0.000000 
 0.720000 0.080000 0.000000 
 0.740000 0.080000 0.000000 
 0.760000 0.080000 0.000000 
 0.780000 0.080000 0.000000 
 0.800000 0.080000 0.000000 
 0.820000 0.080000 0.000000 
 0.840000 0.080000 0.000000 
 0.860000 0.080000 0.000000 
 0.880000 0.080000 0.000000 
 0.900000 0.080000 0.000000 
 0.920000 0.080000 0.000000 
 0.940000 0.080000 0.000000 
 0.960000 0.080000 0.000000 
 0.980000 0.080000 0.000000 
 1.000000 0.080000 0.000000 
 0.000000 0.100000 0.000000 
 0.020000 0.100000 0.000000 
 0.040000 0.100000 0.000000 
 0.060000 0.100000 0.000000 
 0.080000 0.100000 0.000000 
 0.100000 0.100000 0.000000 
 0.120000 0.100000 0.000000 
 0.140000 0.100000 0.000000 
 0.160000 0.100000 0.000000 
 0.180000 0.100000 0.000000 
 0.200000 0.100000 0.000000 
 0.220000 0.100000 0.000000 
 0.240000 0.100000 0.000000 
 0.260000 0.100000 0.000000 
 0.280000 0.100000 0.000000 
 0.300000 0.100000 0.000000 
 0.320000 0.100000 0.000000 
 0.340000 0.100000 0.000000 
 0.360000 0.100000 0.000000 
 0.380000 0.100000 0.000000 
 0.400000 0.100000 0.000000 
 0.420000 0.100000 0.000000 
 0.440000 0.100000 0.000000 
 0.460000 0.100000 0.000000 
 0.480000 0.100000 0.000000 
 0.500000 0.100000 0.000000 
 0.520000 0.100000 0.000000 
 0.540000 0.100000 0.000000 
 0.560000 0.100000 0.000000 
 0.580000 0.100000 0.000000 
 0.600000 0.100000 0.000000 
 0.620000 0.100000 0.000000 
 0.640000 0.100000 0.000000 
 0.660000 0.100000 0.000000 
 0.680000 0.100000 0.000000 
 0.700000 0.100000 0.000000 
 0.720000 0.100000 0.000000 
 0.740000 0.100000 0.000000 
 0.760000 0.100000 0.000000 
 0.780000 0.100000 0.000000 
 0.800000 0.100000 0.000000 
 0.820000 0.100000 0.000000 
 0.840000 0.100000 0.000000 
 0.860000 0.100000 0.000000 
 0.880000 0.100000 0.000000 
 0.900000 0.100000 0.000000 
 0.920000 0.100000 0.000000 
 0.940000 0.100000 0.000000 
 0.960000 0.100000 0.000000 
 0.980000 0.100000 0.000000 
 1.000000 0.100000 0.000000 
 0.000000 0.120000 0.000000 
 0.020000 0.120000 0.000000 
 0.040000 0.120000 0.000000 
 0.060000 0.120000 0.000000 
 0.080000 0.120000 0.000000 
 0.100000 0.120000 0.000000 
 0.120000 0.120000 0.000000 
 0.140000 0.120000 0.000000 
 0.160000 0.120000 0.000000 
 0.180000 0.120000 0.000000 
 0.200000 0.120000 0.000000 
 0.220000 0.120000 0.000000 
 0.240000 0.120000 0.000000 
 0.260000 0.120000 0.000000 
 0.280000 0.120000 0.000000 
 0.300000 0.120000 0.000000 
 0.320000 0.120000 0.000000 
 0.340000 0.120000 0.000000 
 0.360000 0.120000 0.000000 
 0.380000 0.120000 0.000000 
 0.400000 0.120000 0.000000 
 0.420000 0.120000 0.000000 
 0.440000 0.120000 0.000000 
 0.460000 0.120000 0.000000 
 0.480000 0.120000 0.000000 
 0.500000 0.120000 0.000000 
 0.520000 0.120000 0.000000 
 0.540000 0.120000 0.000000 
 0.560000 0.120000 0.000000 
 0.580000 0.120000 0.000000 
 0.600000 0.120000 0.000000 
[...]
<PointData  Scalars="U"> 
<DataArray  type="Float64"  Name="U"  format="ascii"> 
 0.000000e+00
 0.000000e+00
 0.000000e+00
 0.000000e+00
 0.000000e+00
 0.000000e+00
 0.000000e+00
 0.000000e+00
 0.000000e+00
 0.000000e+00
 0.000000e+00
 0.000000e+00
 0.000000e+00
 0.000000e+00
 0.000000e+00
 0.000000e+00
 0.000000e+00
 0.000000e+00
 0.000000e+00
 0.000000e+00
 0.000000e+00
 0.000000e+00
 0.000000e+00
 0.000000e+00
 0.000000e+00
 0.000000e+00
 0.000000e+00
 0.000000e+00
 0.000000e+00
 0.000000e+00
 0.000000e+00
 0.000000e+00
 0.000000e+00
 0.000000e+00
 0.000000e+00
 0.000000e+00
 0.000000e+00
 0.000000e+00
 0.000000e+00
 0.000000e+00
 0.000000e+00
 0.000000e+00
 0.000000e+00
 0.000000e+00
 0.000000e+00
 0.000000e+00
 0.000000e+00
 0.000000e+00
 0.000000e+00
 0.000000e+00
 0.000000e+00
 0.000000e+00
 4.648988e-08
 7.554754e-08
 1.674228e-08
 -1.274162e-07
 -1.690948e-07
 -7.979186e-08
 -5.398623e-09
 5.931960e-08
 1.361741e-07
 1.360692e-07
 6.548630e-08
 -5.035205e-09
 -9.855479e-08
 -1.597757e-07
 -7.547858e-08
 4.600874e-08
 4.719547e-08
 -3.224191e-08
 -7.098677e-08
 -2.927161e-09
 5.787351e-08
 3.208333e-08
 1.958237e-08
 5.136575e-08
 2.039002e-08
 -5.848304e-08
 -5.153922e-08
 8.617351e-08
 2.200758e-07
 1.258482e-07
 -7.240711e-08
 -1.344152e-07
 -8.328716e-08
 -8.948649e-11
 4.082206e-08
 5.247140e-08
 6.151854e-08
 -2.442551e-08
 -1.769469e-07
 -1.518607e-07
 2.610693e-08
 1.173086e-07
 7.211762e-08
 -4.427157e-08
 -1.009528e-07
 -5.861701e-08
 -4.780663e-09
 1.513069e-08
 1.080021e-08
 0.000000e+00
 0.000000e+00
 9.506906e-08
 2.473313e-07
 1.736278e-07
 -3.995225e-07
 -5.144514e-07
 -9.573563e-08
 -4.696214e-10
 7.153072e-08
 3.776369e-07
 3.598481e-07
 9.771235e-08
 3.489275e-08
 -2.057135e-07
 -5.238910e-07
 -1.981034e-07
 2.618009e-07
 1.842069e-07
 -1.097865e-07
 -2.947340e-07
 9.663431e-09
 2.499901e-07
 3.122163e-08
 -4.303363e-08
 1.987639e-07
 1.154035e-07
 -2.241081e-07
 -2.640352e-07
 1.387025e-07
 7.585492e-07
 3.805288e-07
 -3.543745e-07
 -3.769052e-07
 -2.035323e-07
 6.331016e-08
 1.183624e-07
 7.015402e-08
 2.410871e-07
 8.368484e-08
 -6.026235e-07
 -5.069833e-07
 1.967022e-07
 3.805216e-07
 2.344856e-07
 -1.682596e-07
 -3.315378e-07
 -1.130904e-07
 3.449284e-08
 5.345099e-08
 3.023891e-08
 0.000000e+00
 0.000000e+00
 8.412403e-08
 3.140527e-07
 2.166081e-06
 -1.578825e-06
 -1.815920e-06
 5.847647e-07
 1.154939e-07
 -9.172464e-07
 1.440716e-06
 1.074851e-06
 -3.571597e-07
 3.360919e-07
 1.958607e-07
 -2.718781e-06
 -7.034852e-07
 1.368029e-06
 3.672234e-07
 3.660932e-08
 -2.114523e-06
 -8.692418e-08
 1.192619e-06
 -1.079391e-07
 -1.170045e-06
 1.179058e-06
 7.275079e-07
 -9.207539e-07
 -6.670455e-07
 -1.171679e-06
 3.969859e-06
 1.460644e-06
 -1.969619e-06
 -3.859571e-07
 -1.099674e-06
 7.693711e-07
 5.052286e-07
 -3.392319e-07
 5.047556e-07
 2.252476e-06
 -2.848355e-06
 -2.000925e-06
 1.427688e-06
 6.601864e-07
 1.249788e-06
 -5.135140e-07
 -1.133460e-06
 4.869926e-08
 2.052375e-07
 1.213739e-07
 5.281718e-08
 0.000000e+00
 0.000000e+00
 -2.442712e-08
 -1.036293e-07
 -2.055110e-07
 -3.623593e-05
 1.744435e-05
 8.360986e-07
 2.727876e-07
 7.197244e-08
 1.753960e-05
 -1.732171e-05
 3.286440e-07
 7.679138e-07
 3.935166e-06
 -8.208807e-08
 3.238077e-05
 -3.865259e-07
 1.709778e-07
 5.396883e-07
 2.607992e-06
 3.488488e-05
 -1.858942e-06
 -5.247907e-07
 -2.894832e-07
 1.727283e-05
 -1.765129e-05
 -2.536744e-07
 -6.125439e-07
 -2.792449e-06
 1.742151e-05
 -5.053903e-05
 6.869143e-07
 5.141192e-07
 2.213499e-06
 1.489915e-05
 -1.921297e-05
 1.396483e-06
 4.957258e-07
 1.277893e-06
 -3.615657e-05
 3.404222e-05
 5.857275e-07
 2.045754e-07
 8.031867e-07
 -2.015846e-05
 -9.681663e-07
 1.495348e-06
 4.230572e-07
 1.585485e-07
 5.947315e-08
 0.000000e+00
 0.000000e+00
 -9.174800e-08
 -3.575819e-07
 -1.470508e-06
 9.214203e-07
 2.007598e-05
 -8.146183e-07
 6.395758e-08
 5.860945e-07
 -9.389847e-07
 -1.293050e-06
 1.154330e-06
 3.148353e-07
 5.396286e-07
 -5.158075e-05
 2.606068e-07
 -1.640403e-06
 -1.057017e-07
 3.299190e-07
 1.731441e-06
 -3.495236e-05
 -2.617729e-06
 -4.381852e-07
 3.775399e-07
 -1.078078e-06
 -1.452527e-06
 9.507859e-07
 8.711110e-08
 6.166605e-08
 3.213196e-05
 -1.335103e-06
 3.817978e-06
 8.715821e-07
 9.895473e-07
 -3.569759e-05
 3.363200e-05
 9.433595e-07
 -9.319545e-08
 -1.119166e-06
 -1.556186e-05
 2.009654e-05
 -2.272159e-06
 -6.505477e-07
 -1.074686e-06
 -1.765058e-05
 3.610539e-05
 1.834739e-07
 1.482023e-07
 7.825077e-08
 3.609386e-08
 0.000000e+00
 0.000000e+00
 -3.251216e-08
 -7.324577e-08
 6.733786e-08
 1.133310e-06
 4.441729e-07
 -1.195215e-06
 -2.436183e-07
 -1.362863e-07
 -4.228465e-07
 -3.661842e-07
 -8.284460e-08
 -3.970944e-07
 -1.976704e-06
 1.066987e-06
 2.190521e-05
 3.544350e-07
 -2.562844e-07
 -3.718008e-07
 -1.432145e-06
 2.910487e-08
 2.191738e-06
 1.539042e-07
 -2.938172e-08
 -3.439685e-07
 -3.402459e-07
 8.290252e-08
 4.312150e-07
 1.380951e-06
 -9.038034e-07
 -3.054096e-06
 -5.710437e-10
 2.139452e-07
 -9.438926e-07
 1.722691e-06
 2.351263e-06
 -2.247977e-06
 -5.160590e-07
 -6.724156e-07
 1.491901e-06
 1.864283e-06
 -1.280162e-06
 -7.271721e-07
 -9.752721e-07
 1.413530e-06
 1.318888e-06
 -2.177051e-06
 -2.251945e-07
 -1.781528e-08
 7.562039e-09
 0.000000e+00
 0.000000e+00
 3.667906e-08
 2.205975e-07
 4.692968e-07
 3.269100e-07
 -1.145928e-07
 -3.148415e-07
 -2.140185e-07
 -6.941993e-08
 -1.037519e-06
 -2.646578e-07
 8.541646e-08
 -6.532240e-07
 -1.295125e-07
 2.231690e-06
 1.684562e-06
 -1.039306e-06
 -6.276450e-07
 -6.063821e-07
 -5.745404e-07
 -4.225777e-09
 4.975737e-07
 3.114543e-07
 1.153090e-08
 -1.788511e-07
 -1.430199e-07
 9.434475e-08
 2.887546e-07
 1.586273e-07
 -5.462939e-07
 -7.779937e-07
 -2.490059e-07
 -1.852611e-08
 8.601568e-08
 5.845562e-07
 4.022626e-07
 -3.409467e-07
 -3.177471e-07
 1.875823e-07
 6.807910e-07
 4.298744e-07
 -1.803995e-07
 -2.173061e-07
 -1.897149e-07
 -3.415021e-07
 -1.431893e-07
 5.830905e-08
 6.663751e-09
 2.744643e-09
 -7.172300e-10
 0.000000e+00
 0.000000e+00
 -1.342556e-08
 1.081877e-07
 2.226879e-06
 1.841190e-07
 -1.222057e-06
 -1.841425e-07
 -1.101190e-07
 1.872677e-07
 2.523743e-06
 1.749755e-05
 -2.028264e-06
 -1.243317e-06
 -2.238639e-06
 5.197351e-06
 3.166372e-06
 -2.150081e-06
 -9.798280e-07
 -5.249192e-07
 -1.063763e-06
 1.362050e-07
 6.996149e-07
 1.712665e-07
 3.001273e-08
 -2.835207e-07
 -2.014944e-07
 1.891750e-07
 3.261715e-07
 8.062948e-08
 -1.497201e-06
 -5.852140e-07
 4.134739e-07
 -2.028519e-08
 3.778814e-08
 1.164260e-06
 7.838154e-08
 -7.867384e-07
 -2.650515e-07
 1.090088e-06
 1.584655e-06
 -1.088539e-07
 -5.555218e-07
 1.895458e-07
 2.095797e-06
 -3.583734e-06
 -1.757021e-06
 1.868776e-06
 2.753781e-07
 1.441635e-08
 -1.304310e-08
 0.000000e+00
 0.000000e+00
 -1.408018e-07
 -5.053685e-07
 -2.582818e-06
 -3.488636e-05
 1.795667e-06
 3.756179e-07
 -6.430879e-08
 -1.092927e-06
 8.894276e-07
 -3.407838e-05
 -1.262737e-06
 -8.766605e-07
 -4.539017e-06
 3.905006e-05
 -4.857359e-05
 -1.547966e-06
 -5.487041e-07
 -9.975077e-07
 2.509095e-06
 1.831616e-05
 -1.499176e-06
 -1.878995e-07
 1.002673e-06
 -1.285580e-06
 -8.312819e-07
 7.814538e-07
 4.671459e-07
 1.386184e-06
 -9.214390e-08
 1.636126e-05
 -4.816446e-07
 -2.839916e-07
 -3.560466e-07
 -1.355386e-06
 -1.756172e-05
 6.404856e-07
 -3.757046e-07
 -2.561076e-06
 -1.730334e-05
 -1.546466e-05
 6.484996e-07
 2.798248e-07
 4.346903e-07
 -3.354156e-05
 5.240069e-05
 -9.858200e-07
 -2.520197e-07
 -1.190180e-07
 -4.984627e-08
 0.000000e+00
 0.000000e+00
 -1.098151e-07
 -4.097868e-07
 -1.776799e-06
 3.489437e-05
 2.546106e-06
 4.324337e-07
 4.649620e-08
 -2.646727e-07
 1.602381e-05
 1.967626e-07
 2.629051e-06
 7.112844e-07
 1.106452e-06
 6.722284e-05
 -5.493002e-05
 3.637632e-06
 6.564679e-07
 3.719555e-07
 1.837393e-05
 -3.498328e-05
 -1.337943e-06
 -2.674523e-07
 5.441520e-08
 -1.734397e-05
 1.756320e-05
 4.902175e-08
 1.116211e-07
 2.690384e-07
 -1.661560e-05
 -1.459046e-07
 -1.522601e-06
 -4.207048e-07
 -3.271017e-07
 -9.627728e-07
 1.730167e-05
 1.023548e-06
 -1.694937e-07
 -1.087112e-06
 3.416599e-05
 1.472712e-06
 1.675551e-06
 1.758283e-07
 -9.135853e-07
 2.730275e-06
 -1.485079e-05
 -3.460820e-06
 -6.104538e-07
 -2.031118e-07
 -6.999634e-08
 0.000000e+00
 0.000000e+00
 6.563679e-08
 2.488741e-07
 1.368015e-06
 -1.389087e-07
 -2.336293e-06
 -2.396037e-07
 5.809213e-09
 6.164582e-07
 -1.664020e-07
 -9.227218e-07
 7.012613e-07
 1.239174e-06
 2.934114e-06
 -3.433742e-06
 -5.869048e-06
 3.326497e-06
 1.057432e-06
 9.417377e-07
 -1.477216e-06
 -1.464058e-06
 1.916028e-06
 7.913074e-08
 -3.660521e-07
 1.215187e-06
 1.459732e-06
 -1.114393e-06
 -3.160259e-07
 -6.975432e-07
 2.497930e-07
 1.181728e-06
 -2.132489e-07
 -1.649929e-07
 1.649240e-07
 7.274025e-07
 -2.222992e-07
 -1.419388e-06
 -1.157673e-07
 1.336915e-06
 -3.674606e-08
 -2.173491e-06
 -1.035991e-09
 1.866689e-08
 -1.407497e-07
 -3.288119e-07
 4.498854e-07
 1.026940e-06
 -1.344579e-07
 -9.620530e-08
 -4.321781e-08
 0.000000e+00
 0.000000e+00
 1.691978e-07
 4.894952e-07
 6.414603e-07
 -1.789615e-07
 -8.441279e-07
 -5.008936e-07
 -2.781092e-07
 -1.316491e-07
 4.312913e-07
 6.094970e-07
 4.302684e-07
 6.712614e-07
 5.460243e-07
 -1.088077e-06
 -1.529933e-06
 -5.119687e-08
 5.674752e-07
 2.215460e-07
 2.086772e-07
 -7.290098e-07
 -4.319111e-07
 2.527544e-07
 4.902752e-07
 1.014926e-06
 4.706297e-07
 -3.971753e-07
 -2.821803e-07
 2.190972e-08
 2.697642e-07
 -3.593226e-08
 -4.158283e-07
 2.433773e-08
 7.444404e-07
 7.386275e-07
 -3.782126e-07
 -1.004623e-06
 -5.318224e-07
 2.213284e-07
 6.801600e-07
 1.198700e-07
 -3.773869e-07
 -2.915473e-08
 -3.079253e-08
 -6.738515e-07
 -2.433078e-07
 4.859888e-07
 2.142952e-07
 1.714892e-08
 -3.396708e-09
 0.000000e+00
 0.000000e+00
 1.255077e-07
 4.125226e-07
 2.342525e-06
 -4.442407e-07
 -1.810210e-06
 -8.770668e-08
 -7.898894e-08
 -3.028442e-06
 1.641806e-06
 2.480855e-06
 -4.988293e-07
 -1.247011e-07
 1.925619e-06
 -1.198580e-06
 -1.620633e-06
 2.229724e-07
 6.026741e-08
 1.706102e-06
 -3.905530e-06
 -1.928273e-05
 1.933280e-06
 2.038928e-07
 2.062823e-07
 3.875650e-06
 6.249242e-07
 -2.040144e-06
 4.855473e-07
 6.981170e-07
 2.566249e-06
 -3.284302e-07
 -1.983708e-06
 -1.706643e-07
 2.546968e-06
 3.930967e-06
 -1.148768e-06
 -2.588316e-06
 -6.013295e-07
 -1.964095e-06
 3.762443e-06
 1.802955e-06
 -1.889543e-06
 3.585242e-09
 2.991943e-06
 -3.902039e-06
 -1.258303e-06
 2.322876e-06
 -1.205603e-07
 3.981467e-08
 2.318302e-08
 0.000000e+00
 0.000000e+00
 -3.832217e-08
 -1.529332e-07
 -4.069299e-07
 -3.745168e-05
 1.180958e-07
 1.959255e-06
 9.733564e-07
 1.777114e-06
 5.380483e-05
 -1.833965e-05
 -1.200592e-06
 -9.276817e-07
 -3.617868e-06
 -3.256262e-05
 1.984633e-05
 -1.407248e-06
 -6.825143e-07
 -1.480559e-06
 -3.472117e-05
 5.306725e-05
 3.258409e-07
 -5.190919e-07
 -2.965915e-06
 -1.371887e-06
 -5.071229e-05
 1.043918e-06
 -6.412291e-07
 -2.189596e-05
 -2.009500e-05
 -4.977619e-05
 2.257452e-06
 -2.564988e-07
 -3.990411e-06
 -3.495777e-05
 -5.063936e-05
 9.480843e-07
 1.176284e-06
 1.070843e-07
 3.376871e-05
 -5.235035e-05
 9.179379e-07
 8.041768e-08
 -5.270700e-08
 -5.361073e-05
 5.248980e-05
 -1.653678e-05
 3.820185e-07
 1.197547e-07
 4.527123e-08
 0.000000e+00
 0.000000e+00
 -1.487876e-07
 -4.741139e-07
 -1.683869e-06
 1.510688e-07
 3.777928e-05
 8.362247e-07
 9.351460e-07
 2.543615e-06
 -1.829580e-05
 -2.136659e-05
 4.858085e-07
 -3.800113e-07
 -1.673542e-06
 5.313215e-05
 -3.253191e-05
 -1.073648e-06
 -6.385825e-07
 -1.474557e-06
 1.972790e-05
 -1.500848e-05
 -3.331221e-06
 -6.633823e-07
 -9.585910e-07
 3.200535e-05
 1.721181e-05
 3.544860e-06
 -5.486910e-07
 -1.366669e-06
 5.103012e-05
 3.640021e-05
 4.093222e-06
 1.072928e-07
 -3.434470e-06
 4.989794e-05
 3.584329e-06
 2.226871e-05
 1.258167e-06
 1.461345e-06
 -2.546586e-06
 1.485038e-05
 3.306706e-06
 1.129237e-07
 -1.727712e-06
 2.629068e-06
 2.062289e-05
 -3.122125e-06
 8.967249e-07
 1.299190e-07
 4.098503e-08
 0.000000e+00
 0.000000e+00
 -1.310915e-07
 -2.487078e-07
 3.125680e-08
 1.970814e-06
 8.207877e-07
 -1.930856e-06
 -1.590434e-07
 -7.125367e-07
 -1.062524e-06
 6.816361e-07
 1.331948e-06
 5.961642e-07
 1.963288e-06
 -1.633622e-06
 -3.608570e-06
 1.780169e-06
 -4.566015e-09
 4.437931e-07
 -4.597563e-07
 -8.166039e-07
 9.295126e-07
 1.434052e-07
 1.271577e-06
 -1.814243e-07
 -2.952704e-06
 -1.128519e-06
 5.560023e-07
 2.634887e-06
 1.298758e-06
 -3.642942e-06
 -2.273743e-06
 4.085359e-07
 2.076068e-06
 1.708613e-05
 -2.767119e-06
 2.361197e-07
 -6.689899e-07
 2.559838e-07
 3.189567e-07
 -5.420158e-07
 -1.135714e-06
 -3.603708e-08
 2.021271e-07
 1.613132e-06
 6.851821e-07
 -1.402283e-06
 -3.216798e-07
 -1.872451e-08
 4.477344e-09
 0.000000e+00
 0.000000e+00
 -9.012064e-08
 -1.972530e-07
 3.342790e-08
 8.587752e-07
 8.398824e-07
 -6.679244e-08
 -5.627904e-07
 -7.431026e-07
 -3.097288e-07
 3.613227e-07
 5.291377e-07
 5.199060e-07
 5.080244e-07
 -1.943805e-07
 -8.116341e-07
 -4.142005e-07
 -1.055023e-08
 -9.490060e-08
 -4.011214e-07
 -9.972807e-08
 3.928416e-07
 4.748211e-07
 3.816261e-07
 -5.919754e-07
 -8.589855e-07
 -1.718382e-08
 4.349169e-07
 1.721998e-06
 4.410359e-07
 -9.661035e-07
 -4.263920e-07
 5.873690e-07
 1.783746e-06
 8.863216e-07
 -2.250491e-06
 -1.353045e-06
 -2.878520e-07
 6.017922e-08
 3.433167e-07
 -3.556197e-08
 -4.359892e-07
 -1.460057e-07
 3.362617e-07
 7.039793e-07
 3.164423e-07
 -2.746555e-07
 -2.485934e-07
 -7.523193e-08
 -1.354558e-08
 0.000000e+00
 0.000000e+00
 -1.938920e-08
 -1.627700e-07
 -1.953155e-06
 8.173914e-07
 1.963887e-06
 -3.299713e-08
 -5.477704e-07
 -2.512583e-06
 -3.549473e-08
 1.434769e-06
 1.492700e-07
 8.706688e-08
 7.204073e-08
 1.667459e-06
 -4.019468e-07
 -1.236964e-06
 1.803221e-07
 1.353769e-07
 -2.284005e-06
 -1.980995e-07
 1.411620e-06
 -4.701062e-07
 2.425979e-06
 -3.680962e-06
 -1.892046e-06
 2.126833e-06
 -1.857713e-08
 -2.237155e-06
 -1.749095e-05
 1.311131e-06
 7.920507e-08
 3.551930e-07
 3.381517e-06
 -1.566703e-06
 -2.017476e-05
 3.690481e-07
 1.160112e-07
 -9.014812e-07
 2.131070e-06
 6.552697e-07
 -1.274545e-06
 -9.635915e-08
 2.165130e-07
 1.338044e-06
 2.269122e-07
 -5.857197e-07
 -6.957743e-08
 -5.633416e-10
 7.848666e-09
 0.000000e+00
 0.000000e+00
 1.215308e-07
 3.349082e-07
 6.859843e-07
 3.777767e-05
 1.998045e-07
 -1.588250e-06
 -1.811360e-07
 1.267428e-06
 3.603776e-05
 -1.029758e-06
 -1.176486e-06
 -3.640214e-07
 3.718805e-07
 -4.058413e-06
 -3.588829e-05
 2.539115e-06
 1.024711e-06
 1.926132e-06
 1.517640e-06
 3.420654e-05
 -9.090555e-07
 5.511911e-08
 1.826231e-05
 -3.105650e-05
 6.972066e-05
 -2.905456e-06
 -7.602132e-07
 7.157251e-08
 3.467166e-05
 1.067706e-07
 -3.793638e-07
 -7.528730e-07
 -2.055005e-06
 -5.465939e-05
 1.845295e-05
 2.445013e-06
 6.668191e-07
 9.486065e-07
 1.489129e-05
 -3.580539e-05
 1.577826e-06
 3.597268e-07
 -2.803699e-08
 -1.120412e-06
 -1.730509e-05
 1.007965e-06
 2.936068e-07
 1.154528e-07
 4.329704e-08
 0.000000e+00
 0.000000e+00
 1.873364e-07
 5.819640e-07
 1.909869e-06
 2.059087e-07
 -3.733679e-05
 -2.602999e-07
 2.541962e-07
 1.640742e-06
 -1.759485e-05
 -2.023699e-05
 -6.836694e-07
 -4.351856e-07
 -5.405062e-07
 -1.931813e-05
 5.237050e-05
 2.658091e-06
 7.365692e-07
 7.424961e-07
 -1.545781e-05
 -1.722376e-05
 -2.285936e-06
 3.281471e-07
 -9.611106e-07
 2.215084e-06
 -5.010456e-05
 -4.913454e-06
 -7.892571e-07
 1.053049e-06
 -1.784579e-05
 -2.726872e-06
 -7.799374e-07
 -1.139390e-06
 -4.030648e-06
 1.799640e-05
 2.215879e-05
 -1.517313e-07
 2.852219e-07
 5.078009e-07
 -1.921788e-05
 3.367192e-05
 2.401628e-06
 4.333561e-07
 -2.953838e-08
 -7.742734e-07
 1.758865e-05
 1.440999e-06
 3.714730e-07
 1.495000e-07
 5.594956e-08
 0.000000e+00
 0.000000e+00
 9.380728e-08
 2.226116e-07
 1.190563e-07
 -1.509464e-06
 -2.518296e-07
 2.343231e-06
 3.376146e-07
 -5.861684e-07
 -9.085114e-07
 6.528877e-07
 9.290572e-07
 -8.742750e-08
 -4.589980e-07
 2.228147e-06
 1.280494e-06
 -3.227430e-06
 -4.301197e-07
 -8.204803e-07
 -2.999686e-07
 1.586046e-06
 1.354227e-06
 6.865436e-08
 -4.847763e-07
 -2.072524e-06
 2.489193e-07
 3.191850e-06
 -4.876933e-08
 -7.988919e-07
 -3.522256e-07
 6.222601e-07
 -2.240407e-07
 -1.962394e-07
 4.093951e-07
 1.831662e-05
 -6.875381e-07
 -1.200001e-06
 -3.896343e-07
 -6.888662e-07
 1.345901e-06
 1.186971e-06
 -1.971199e-06
 -5.636138e-08
 5.337662e-08
 6.552559e-07
 8.514103e-08
 -8.903073e-07
 1.018732e-07
 8.576926e-08
 3.664519e-08
 0.000000e+00
 0.000000e+00
 -4.942828e-08
 -1.478974e-07
 -1.832662e-07
 -1.785032e-08
 1.997623e-07
 2.486934e-07
 1.174053e-07
 -5.816673e-08
 -2.135044e-07
 -2.159608e-07
 -5.395618e-08
 1.579381e-07
 4.250017e-07
 6.478934e-07
 3.695844e-07
 -3.411866e-07
 -6.943785e-07
 -6.389148e-07
 -1.546301e-07
 5.082830e-07
 5.974885e-07
 2.735247e-07
 -1.951789e-07
 -7.049783e-07
 -2.866242e-07
 4.691494e-07
 3.273886e-07
 -3.084900e-07
 -7.111002e-07
 -1.281030e-07
 5.069949e-07
 5.679038e-07
 1.089997e-06
 4.406711e-08
 -1.435003e-06
 -5.011426e-07
 -5.888433e-07
 -5.443253e-07
 3.985442e-07
 7.342380e-07
 3.368892e-08
 -1.938773e-07
 -1.529642e-07
 -6.324078e-08
 1.616275e-07
 2.051118e-07
 7.294085e-08
 1.568424e-08
 2.110691e-10
 0.000000e+00
 0.000000e+00
 -1.413433e-07
 -4.294438e-07
 -1.271361e-06
 1.656516e-06
 1.226269e-06
 -8.161677e-07
 -3.817757e-07
 8.217479e-07
 8.980834e-07
 -6.869996e-07
 -6.982213e-07
 1.782972e-08
 2.181133e-06
 -4.370474e-07
 4.458288e-07
 6.959007e-07
 -8.613065e-07
 -1.449450e-06
 -3.778133e-07
 8.249356e-07
 5.738543e-07
 2.972434e-07
 9.543595e-07
 -6.828045e-07
 -1.036210e-06
 4.234726e-07
 5.946998e-07
 9.049816e-07
 -3.586350e-06
 -7.830137e-07
 2.226659e-06
 7.272138e-07
 4.341993e-07
 -1.203256e-06
 -5.148193e-07
 3.576433e-07
 -2.993795e-07
 -3.307715e-06
 2.041276e-07
 2.154060e-06
 1.287358e-08
 -2.723650e-07
 -1.805899e-07
 -1.848489e-06
 1.822019e-07
 1.179234e-06
 -2.762750e-08
 -9.604650e-08
 -4.870478e-08
 0.000000e+00
 0.000000e+00
 -1.020121e-07
 -3.554309e-07
 -2.256707e-06
 1.994556e-05
 -1.582662e-05
 -1.504963e-06
 -8.334611e-07
 -1.812508e-06
 -1.888468e-05
 -1.659795e-05
 1.035027e-06
 -2.227220e-07
 -3.388655e-06
 -3.342897e-05
 2.030292e-05
 -1.751994e-05
 3.796196e-07
 2.213804e-06
 1.513732e-05
 -4.054720e-07
 1.389793e-06
 -5.037576e-07
 6.275089e-07
 -2.016467e-05
 -8.291168e-07
 1.843260e-06
 1.774206e-06
 -4.967841e-07
 -1.560316e-05
 5.314223e-05
 -1.470742e-06
 2.934255e-08
 1.385607e-06
 4.442549e-08
 1.652946e-05
 -2.124536e-07
 4.250977e-07
 2.725600e-06
 5.360014e-05
 -1.879761e-06
 -1.403757e-06
 -4.496358e-07
 -6.793499e-07
 3.907627e-06
 3.581692e-05
 -2.475959e-06
 -6.683750e-07
 -2.484014e-07
 -8.950919e-08
 0.000000e+00
 0.000000e+00
 4.980230e-08
 1.770894e-07
 5.319138e-07
 3.389228e-05
 -3.643739e-05
 8.169478e-07
 -3.691379e-07
 -1.218211e-06
 1.656108e-05
 1.886172e-05
 1.646361e-06
 1.648062e-07
 -1.399747e-06
 5.312922e-05
 -1.573242e-05
 -7.209541e-07
 1.452546e-06
 1.259799e-06
 -3.474649e-05
 3.370833e-05
 -1.780050e-05
 -3.244750e-07
 -9.298088e-07
 -1.749759e-05
 3.624620e-05
 2.869499e-07
 2.718078e-07
 -1.748323e-05
 2.024631e-05
 -3.359032e-05
 -3.586418e-06
 -5.159689e-07
 1.746382e-07
 -1.652627e-05
 5.232454e-08
 -1.183465e-06
 3.311879e-07
 2.455672e-06
 -3.508340e-05
 -2.149873e-05
 -8.023804e-07
 -1.491565e-07
 3.292265e-07
 1.925650e-05
 -5.236064e-05
 -2.595124e-06
 -5.770709e-07
 -2.059930e-07
 -7.492988e-08
 0.000000e+00
 0.000000e+00
 1.494663e-07
 4.533027e-07
 1.366022e-06
 -2.119896e-06
 -3.117864e-06
 1.872553e-06
 2.059870e-07
 6.771097e-07
 7.550830e-07
 -7.673217e-07
 -7.063387e-07
 5.943590e-07
 2.216418e-06
 -9.247570e-07
 -3.936092e-06
 4.582977e-07
 3.383583e-08
 -7.437886e-07
 1.940948e-06
 1.653303e-06
 -2.438079e-06
 5.702285e-07
 -5.800213e-07
 1.767019e-06
 1.488137e-06
 -2.315103e-06
 -8.788925e-07
 7.753092e-07
 1.900369e-07
 -8.810972e-07
 1.893313e-06
 -1.172866e-07
 -6.286589e-07
 3.441154e-07
 1.392824e-06
 2.020534e-08
 -2.817456e-07
 -1.571829e-06
 -1.069627e-06
 1.774801e-06
 1.195016e-06
 2.668144e-07
 5.288618e-07
 -2.134378e-06
 -1.170365e-06
 3.258173e-06
 2.413280e-07
 4.093746e-09
 -1.807030e-08
 0.000000e+00