<VTKFile type="UnstructuredGrid"  version="0.1"   >
<UnstructuredGrid>  
<Piece  NumberOfPoints="     2601"  NumberOfCells="     5000">  
<Points>  
<DataArray  type="Float64"  NumberOfComponents="3"  format="ascii">  
 0.000000 0.000000 0.000000 
 0.020000 0.000000 0.000000 
 0.040000 0.000000 0.000000 
 0.060000 0.000000 0.000000 
 0.080000 0.000000 0.000000 
 0.100000 0.000000 0.000000 
 0.120000 0.000000 0.000000 
 0.140000 0.000000 0.000000 
 0.160000 0.000000 0.000000 
 0.180000 0.000000 0.000000 
 0.200000 0.000000 0.000000 
 0.220000 0.000000 0.000000 
 0.240000 0.000000 0.000000 
 0.260000 0.000000 0.000000 
 0.280000 0.000000 0.000000 
 0.300000 0.000000 0.000000 
 0.320000 0.000000 0.000000 
 0.340000 0.000000 0.000000 
 0.360000 0.000000 0.000000 
 0.380000 0.000000 0.000000 
 0.400000 0.000000 0.000000 
 0.420000 0.000000 0.000000 
 0.440000 0.000000 0.000000 
 0.460000 0.000000 0.000000 
 0.480000 0.000000 0.000000 
 0.500000 0.000000 0.000000 
 0.520000 0.000000 0.000000 
 0.540000 0.000000 0.000000 
 0.560000 0.000000 0.000000 
 0.580000 0.000000 0.000000 
 0.600000 0.000000 0.000000 
 0.620000 0.000000 0.000000 
 0.640000 0.000000 0.000000 
 0.660000 0.000000 0.000000 
 0.680000 0.000000 0.000000 
 0.700000 0.000000 0.000000 
 0.720000 0.000000 0.000000 
 0.740000 0.000000 0.000000 
 0.760000 0.000000 0.000000 
 0.780000 0.000000 0.000000 
 0.800000 0.000000 0.000000 
 0.820000 0.000000 0.000000 
 0.840000 0.000000 0.000000 
 0.860000 0.000000 0.000000 
 0.880000 0.000000 0.000000 
 0.900000 0.000000 0.000000 
 0.920000 0.000000 0.000000 
 0.940000 0.000000 0.000000 
 0.960000 0.000000 0.000000 
 0.980000 0.000000 0.000000 
 1.000000 0.000000 0.000000 
 0.000000 0.020000 0.000000 
 0.020000 0.020000 0.000000 
 0.040000 0.020000 0.000000 
 0.060000 0.020000 0.000000 
 0.080000 0.020000 0.000000 
 0.100000 0.020000 0.000000 
 0.120000 0.020000 0.000000 
 0.140000 0.020000 0.000000 
 0.160000 0.020000 0.000000 
 0.180000 0.020000 0.000000 
 0.200000 0.020000 0.000000 
 0.220000 0.020000 0.000000 
 0.240000 0.020000 0.000000 
 0.260000 0.020000 0.000000 
 0.280000 0.020000 0.000000 
 0.300000 0.020000 0.000000 
 0.320000 0.020000 0.000000 
 0.340000 0.020000 0.000000 
 0.360000 0.020000 0.000000 
 0.380000 0.020000 0.000000 
 0.400000 0.020000 0.000000 
 0.420000 0.020000 0.000000 
 0.440000 0.020000 0.000000 
 0.460000 0.020000 0.000000 
 0.480000 0.020000 0.000000 
 0.500000 0.020000 0.000000 
 0.520000 0.020000 0.000000 
 0.540000 0.020000 0.000000 
 0.560000 0.020000 0.000000 
 0.580000 0.020000 0.000000 
 0.600000 0.020000 0.000000 
 0.620000 0.020000 0.000000 
 0.640000 0.020000 0.000000 
 0.660000 0.020000 0.000000 
 0.680000 0.020000 0.000000 
 0.700000 0.020000 0.000000 
 0.720000 0.020000 0.000000 
 0.740000 0.020000 0.000000 
 0.760000 0.020000 0.000000 
 0.780000 0.020000 0.000000 
 0.800000 0.020000 0.000000 
 0.820000 0.020000 0.000000 
 0.840000 0.020000 0.000000 
 0.860000 0.020000 0.000000 
 0.880000 0.020000 0.000000 
 0.900000 0.020000 0.000000 
 0.920000 0.020000 0.000000 
 0.940000 0.020000 0.000000 
 0.960000 0.020000 0.000000 
 0.980000 0.020000 0.000000 
 1.000000 0.020000 0.000000 
 0.000000 0.040000 0.000000 
 0.020000 0.040000 0.000000 
 0.040000 0.040000 0.000000 
 0.060000 0.040000 0.000000 
 0.080000 0.040000 0.000000 
 0.100000 0.040000 0.000000 
 0.120000 0.040000 0.000000 
 0.140000 0.040000 0.000000 
 0.160000 0.040000 0.000000 
 0.180000 0.040000 0.000000 
 0.200000 0.040000 0.000000 
 0.220000 0.040000 0.000000 
 0.240000 0.040000 0.000000 
 0.260000 0.040000 0.000000 
 0.280000 0.040000 0.000000 
 0.300000 0.040000 0.000000 
 0.320000 0.040000 0.000000 
 0.340000 0.040000 0.000000 
 0.360000 0.040000 0.000000 
 0.380000 0.040000 0.000000 
 0.400000 0.040000 0.000000 
 0.420000 0.040000 0.000000 
 0.440000 0.040000 0.000000 
 0.460000 0.040000 0.000000 
 0.480000 0.040000 0.000000 
 0.500000 0.040000 0.000000 
 0.520000 0.040000 0.000000 
 0.540000 0.040000 0.000000 
 0.560000 0.040000 0.000000 
 0.580000 0.040000 0.000000 
 0.600000 0.040000 0.000000 
 0.620000 0.040000 0.000000 
 0.640000 0.040000 0.000000 
 0.660000 0.040000 0.000000 
 0.680000 0.040000 0.000000 
 0.700000 0.040000 0.000000 
 0.720000 0.040000 0.000000 
 0.740000 0.040000 0.000000 
 0.760000 0.040000 0.000000 
 0.780000 0.040000 0.000000 
 0.800000 0.040000 0.000000 
 0.820000 0.040000 0.000000 
 0.840000 0.040000 0.000000 
 0.860000 0.040000 0.000000 
 0.880000 0.040000 0.000000 
 0.900000 0.040000 0.000000 
 0.920000 0.040000 0.000000 
 0.940000 0.040000 0.000000 
 0.960000 0.040000 0.000000 
 0.980000 0.040000 0.000000 
 1.000000 0.040000 0.000000 
 0.000000 0.060000 0.000000 
 0.020000 0.060000 0.000000 
 0.040000 0.060000 0.000000 
 0.060000 0.060000 0.000000 
 0.080000 0.060000 0.000000 
 0.100000 0.060000 0.000000 
 0.120000 0.060000 0.000000 
 0.140000 0.060000 0.000000 
 0.160000 0.060000 0.000000 
 0.180000 0.060000 0.000000 
 0.200000 0.060000 0.000000 
 0.220000 0.060000 0.000000 
 0.240000 0.060000 0.000000 
 0.260000 0.060000 0.000000 
 0.280000 0.060000 0.000000 
 0.300000 0.060000 0.000000 
 0.320000 0.060000 0.000000 
 0.340000 0.060000 0.000000 
 0.360000 0.060000 0.000000 
 0.380000 0.060000 0.000000 
 0.400000 0.060000 0.000000 
 0.420000 0.060000 0.000000 
 0.440000 0.060000 0.000000 
 0.460000 0.060000 0.000000 
 0.480000 0.060000 0.000000 
 0.500000 0.060000 0.000000 
 0.520000 0.060000 0.000000 
 0.540000 0.060000 0.000000 
 0.560000 0.060000 0.000000 
 0.580000 0.060000 0.000000 
 0.600000 0.060000 0.000000 
 0.620000 0.060000 0.000000 
 0.640000 0.060000 0.000000 
 0.660000 0.060000 0.000000 
 0.680000 0.060000 0.000000 
 0.700000 0.060000 0.000000 
 0.720000 0.060000 0.000000 
 0.740000 0.060000 0.000000 
 0.760000 0.060000 0.000000 
 0.780000 0.060000 0.000000 
 0.800000 0.060000 0.000000 
 0.820000 0.060000 0.000000 
 0.840000 0.060000 0.000000 
 0.860000 0.060000 0.000000 
 0.880000 0.060000 0.000000 
 0.900000 0.060000 0.000000 
 0.920000 0.060000 0.000000 
 0.940000 0.060000 0.000000 
 0.960000 0.060000 0.000000 
 0.980000 0.060000 0.000000 
 1.000000 0.060000 0.000000 
 0.000000 0.080000 0.000000 
 0.020000 0.080000 0.000000 
 0.040000 0.080000 0.000000 
 0.060000 0.080000 0.000000 
 0.080000 0.080000 0.000000 
 0.100000 0.080000 0.000000 
 0.120000 0.080000 0.000000 
 0.140000 0.080000 0.000000 
 0.160000 0.080000 0.000000 
 0.180000 0.080000 0.000000 
 0.200000 0.080000 0.000000 
 0.220000 0.080000 0.000000 
 0.240000 0.080000 0.000000 
 0.260000 0.080000 0.000000 
 0.280000 0.080000 0.000000 
 0.300000 0.080000 0.000000 
 0.320000 0.080000 0.000000 
 0.340000 0.080000 0.000000 
 0.360000 0.080000 0.000000 
 0.380000 0.080000 0.000000 
 0.400000 0.080000 0.000000 
 0.420000 0.080000 0.000000 
 0.440000 0.080000 0.000000 
 0.460000 0.080000 0.000000 
 0.480000 0.080000 0.000000 
 0.500000 0.080000 0.000000 
 0.520000 0.080000 0.000000 
 0.540000 0.080000 0.000000 
 0.560000 0.080000 0.000000 
 0.580000 0.080000 0.000000 
 0.600000 0.080000 0.000000 
 0.620000 0.080000 0.000000 
 0.640000 0.080000 0.000000 
 0.660000 0.080000 0.000000 
 0.680000 0.080000 0.000000 
 0.700000 0.080000 0.000000 
 0.720000 0.080000 0.000000 
 0.740000 0.080000 0.000000 
 0.760000 0.080000 0.000000 
 0.780000 0.080000 0.000000 
 0.800000 0.080000 0.000000 
 0.820000 0.080000 0.000000 
 0.840000 0.080000 0.000000 
 0.860000 0.080000 0.000000 
 0.880000 0.080000 0.000000 
 0.900000 0.080000 0.000000 
 0.920000 0.080000 0.000000 
 0.940000 0.080000 0.000000 
 0.960000 0.080000 0.000000 
 0.980000 0.080000 0.000000 
 1.000000 0.080000 0.000000 
 0.000000 0.100000 0.000000 
 0.020000 0.100000 0.000000 
 0.040000 0.100000 0.000000 
 0.060000 0.100000 0.000000 
 0.080000 0.100000 0.000000 
 0.100000 0.100000 0.000000 
 0.120000 0.100000 0.000000 
 0.140000 0.100000 0.000000 
 0.160000 0.100000 0.000000 
 0.180000 0.100000 0.000000 
 0.200000 0.100000 0.000000 
 0.220000 0.100000 0.000000 
 0.240000 0.100000 0.000000 
 0.260000 0.100000 0.000000 
 0.280000 0.100000 0.000000 
 0.300000 0.100000 0.000000 
 0.320000 0.100000 0.000000 
 0.340000 0.100000 0.000000 
 0.360000 0.100000 0.000000 
 0.380000 0.100000 0.000000 
 0.400000 0.100000 0.000000 
 0.420000 0.100000 0.000000 
 0.440000 0.100000 0.000000 
 0.460000 0.100000 0.000000 
 0.480000 0.100000 0.000000 
 0.500000 0.100000 0.000000 
 0.520000 0.100000 0.000000 
 0.540000 0.100000 0.000000 
 0.560000 0.100000 0.000000 
 0.580000 0.100000 0.000000 
 0.600000 0.100000 0.000000 
 0.620000 0.100000 0.000000 
 0.640000 0.100000 0.000000 
 0.660000 0.100000 0.000000 
 0.680000 0.100000 0.000000 
 0.700000 0.100000 0.000000 
 0.720000 0.100000 0.000000 
 0.740000 0.100000 0.000000 
 0.760000 0.100000 0.000000 
 0.780000 0.100000 0.000000 
 0.800000 0.100000 0.000000 
 0.820000 0.100000 0.000000 
 0.840000 0.100000 0.000000 
 0.860000 0.100000 0.000000 
 0.880000 0.100000 0.000000 
 0.900000 0.100000 0.000000 
 0.920000 0.100000 0.000000 
 0.940000 0.100000 0.000000 
 0.960000 0.100000 0.000000 
 0.980000 0.100000 0.000000 
 1.000000 0.100000 0.000000 
 0.000000 0.120000 0.000000 
 0.020000 0.120000 0.000000 
 0.040000 0.120000 0.000000 
 0.060000 0.120000 0.000000 
 0.080000 0.120000 0.000000 
 0.100000 0.120000 0.000000 
 0.120000 0.120000 0.000000 
 0.140000 0.120000 0.000000 
 0.160000 0.120000 0.000000 
 0.180000 0.120000 0.000000 
 0.200000 0.120000 0.000000 
 0.220000 0.120000 0.000000 
 0.240000 0.120000 0.000000 
 0.260000 0.120000 0.000000 
 0.280000 0.120000 0.000000 
 0.300000 0.120000 0.000000 
 0.320000 0.120000 0.000000 
 0.340000 0.120000 0.000000 
 0.360000 0.120000 0.000000 
 0.380000 0.120000 0.000000 
 0.400000 0.120000 0.000000 
 0.420000 0.120000 0.000000 
 0.440000 0.120000 0.000000 
 0.460000 0.120000 0.000000 
 0.480000 0.120000 0.000000 
 0.500000 0.120000 0.000000 
 0.520000 0.120000 0.000000 
 0.540000 0.120000 0.000000 
 0.560000 0.120000 0.000000 
 0.580000 0.120000 0.000000 
 0.600000 0.120000 0.000000 
[...]
<PointData  Scalars="U"> 
<DataArray  type="Float64"  Name="U"  format="ascii"> 
 0.000000e+00
 0.000000e+00
 0.000000e+00
 0.000000e+00
 0.000000e+00
 0.000000e+00
 0.000000e+00
 0.000000e+00
 0.000000e+00
 0.000000e+00
 0.000000e+00
 0.000000e+00
 0.000000e+00
 0.000000e+00
 0.000000e+00
 0.000000e+00
 0.000000e+00
 0.000000e+00
 0.000000e+00
 0.000000e+00
 0.000000e+00
 0.000000e+00
 0.000000e+00
 0.000000e+00
 0.000000e+00
 0.000000e+00
 0.000000e+00
 0.000000e+00
 0.000000e+00
 0.000000e+00
 0.000000e+00
 0.000000e+00
 0.000000e+00
 0.000000e+00
 0.000000e+00
 0.000000e+00
 0.000000e+00
 0.000000e+00
 0.000000e+00
 0.000000e+00
 0.000000e+00
 0.000000e+00
 0.000000e+00
 0.000000e+00
 0.000000e+00
 0.000000e+00
 0.000000e+00
 0.000000e+00
 0.000000e+00
 0.000000e+00
 0.000000e+00
 0.000000e+00
 1.583155e-07
 2.275839e-07
 -4.672359e-09
 -2.048838e-07
 -1.317611e-07
 -3.887400e-08
 1.610306e-09
 7.305267e-09
 -1.492846e-08
 -5.820843e-08
 -9.843418e-08
 -9.806533e-08
 -8.232448e-08
 -2.153255e-08
 2.482455e-07
 4.067607e-07
 2.274254e-07
 5.103734e-08
 2.481351e-08
 1.233640e-07
 1.736837e-07
 -6.402369e-08
 -2.609946e-07
 -1.766508e-07
 -6.527873e-08
 3.434368e-09
 5.545500e-08
 9.956642e-08
 1.221008e-07
 5.195263e-08
 -9.502472e-07
 3.030654e-07
 1.001535e-06
 -8.718461e-07
 1.731870e-05
 3.650342e-07
 -3.288360e-07
 -5.271947e-07
 -3.221832e-07
 1.193476e-07
 2.443486e-07
 8.547205e-08
 -2.871687e-08
 -5.054824e-08
 -2.295961e-08
 1.082026e-08
 2.427619e-08
 1.996213e-08
 9.293181e-09
 0.000000e+00
 0.000000e+00
 2.307630e-07
 1.332923e-06
 4.131720e-08
 -8.491057e-07
 -1.968367e-07
 -2.373897e-08
 3.491579e-08
 4.255686e-08
 -5.765273e-09
 -1.144524e-07
 -2.471429e-07
 -2.405643e-07
 -2.887167e-08
 -8.120470e-07
 5.160579e-07
 1.338480e-06
 3.625539e-07
 -7.137897e-08
 -6.524695e-08
 1.310316e-07
 1.214412e-06
 -8.569827e-08
 -9.695154e-07
 -2.934335e-07
 -8.467224e-08
 1.941356e-08
 1.150003e-07
 2.176822e-07
 2.953763e-07
 4.367516e-07
 6.425889e-07
 1.823454e-05
 6.087267e-07
 8.030411e-07
 1.712793e-05
 -1.746936e-06
 -7.989433e-07
 -1.818702e-06
 -1.532730e-06
 6.373474e-07
 8.482987e-07
 3.715060e-08
 -1.499868e-07
 -1.512361e-07
 -4.932765e-08
 4.826649e-08
 6.740045e-08
 4.452605e-08
 1.946043e-08
 0.000000e+00
 0.000000e+00
 8.345493e-09
 5.600784e-08
 -1.739289e-05
 6.927532e-08
 4.505354e-08
 7.595761e-08
 1.096670e-07
 1.335464e-07
 7.477985e-08
 -1.497719e-07
 -4.069118e-07
 -1.195362e-06
 3.874843e-07
 1.227332e-06
 1.810038e-05
 1.541715e-06
 2.185320e-07
 -7.673348e-07
 -2.223880e-07
 -1.603180e-07
 -1.376531e-07
 -1.760291e-05
 -1.341705e-07
 -1.161998e-07
 -2.007421e-08
 3.346301e-08
 1.492675e-07
 3.962690e-07
 4.019717e-07
 6.457138e-07
 1.785346e-06
 2.158800e-06
 -3.318197e-07
 8.864558e-08
 -5.747502e-07
 -1.890086e-06
 -5.695653e-07
 -2.371285e-07
 1.723052e-05
 1.708244e-05
 -4.751654e-07
 -4.293454e-07
 -4.152085e-07
 -3.732701e-07
 -6.530665e-08
 1.913888e-07
 1.481924e-07
 6.479332e-08
 2.229403e-08
 0.000000e+00
 0.000000e+00
 -1.693744e-07
 -8.022652e-07
 9.965669e-08
 1.395663e-06
 3.131445e-07
 1.654230e-07
 1.823104e-07
 3.021777e-07
 3.427408e-07
 -1.768493e-08
 -1.228194e-06
 1.830145e-07
 1.873821e-05
 1.154037e-06
 1.850411e-09
 -1.154105e-06
 -1.739263e-05
 1.137724e-07
 -7.218817e-08
 -3.608327e-07
 -1.090635e-06
 -2.130751e-07
 1.069857e-06
 5.055128e-08
 8.217524e-08
 1.629199e-07
 -6.893500e-07
 1.497138e-06
 -2.654887e-08
 -1.887111e-07
 1.428092e-06
 1.056898e-06
 -1.581660e-05
 1.108491e-07
 -1.009757e-06
 -4.288923e-07
 1.596194e-07
 1.169379e-06
 8.829563e-07
 -1.826421e-06
 -2.481508e-06
 -9.309274e-07
 -5.004421e-07
 -1.446979e-06
 -1.173903e-07
 8.048794e-07
 1.829676e-07
 3.997420e-08
 6.091346e-09
 0.000000e+00
 0.000000e+00
 -4.506055e-08
 -8.757573e-08
 1.227756e-07
 3.289517e-07
 2.275348e-07
 1.206760e-07
 1.578509e-07
 3.755537e-07
 1.564652e-06
 4.664550e-07
 -1.444725e-07
 1.869236e-05
 4.628036e-07
 -1.042761e-06
 -1.568470e-06
 -1.149961e-06
 6.635705e-07
 1.489192e-06
 2.542543e-07
 -3.111931e-07
 -5.735279e-07
 -2.645928e-07
 -1.963463e-07
 -3.136584e-07
 1.395872e-07
 7.079634e-07
 7.859448e-07
 1.802756e-05
 -1.722614e-05
 1.746246e-05
 -1.075925e-07
 6.111033e-07
 4.331222e-07
 -1.676683e-05
 4.194692e-08
 1.098560e-07
 1.379325e-06
 6.754278e-07
 1.923794e-06
 -5.173726e-07
 -3.406962e-06
 -8.746544e-07
 3.225883e-07
 -1.161309e-07
 1.731394e-05
 -1.425971e-07
 -9.004714e-08
 -6.622787e-08
 -3.145287e-08
 0.000000e+00
 0.000000e+00
 1.827993e-07
 1.976575e-07
 2.429744e-07
 1.617622e-07
 -4.101684e-08
 -5.917404e-08
 -7.456827e-09
 6.425793e-08
 3.043909e-07
 -1.667894e-05
 1.849261e-06
 1.171312e-06
 -5.361208e-07
 7.627040e-09
 -1.164817e-07
 1.701912e-05
 -3.324312e-07
 1.692851e-07
 1.110892e-06
 -3.706164e-07
 -1.135707e-06
 6.824812e-07
 -4.334973e-07
 -2.179317e-06
 8.373117e-08
 1.683410e-06
 2.761930e-06
 -2.364205e-08
 3.860305e-08
 5.174167e-07
 -2.504193e-06
 -6.939618e-07
 -1.697242e-05
 6.343484e-07
 1.081107e-06
 1.984622e-07
 -2.972191e-07
 -1.760984e-05
 3.125839e-07
 -3.450495e-05
 1.363351e-06
 1.749714e-05
 -6.351640e-07
 6.714350e-07
 -1.802281e-07
 -1.525134e-06
 -4.185167e-07
 -1.765000e-07
 -6.299636e-08
 0.000000e+00
 0.000000e+00
 1.117764e-06
 3.287869e-07
 9.230650e-07
 3.349501e-07
 -6.682351e-07
 -2.524660e-07
 -1.795767e-07
 -3.263324e-07
 -8.090560e-07
 6.751377e-07
 2.629175e-06
 2.576283e-06
 9.849516e-07
 2.115954e-07
 2.041661e-06
 -3.482687e-07
 -2.132409e-06
 -3.511961e-07
 -5.655406e-07
 -1.822516e-05
 -6.161805e-07
 -4.018288e-07
 -1.768848e-05
 -1.632057e-07
 1.746542e-05
 1.340460e-06
 7.009148e-07
 -1.659056e-05
 -1.699471e-08
 -1.862994e-05
 -1.101984e-06
 -1.482996e-06
 -4.207423e-08
 -1.563550e-05
 2.095238e-06
 1.201308e-06
 -2.927474e-06
 -1.259516e-06
 5.357001e-07
 9.743509e-07
 3.983422e-06
 -1.658989e-05
 -6.775633e-07
 2.896736e-07
 -1.295345e-07
 -6.250057e-07
 -4.649724e-07
 -1.765579e-07
 -4.633250e-08
 0.000000e+00
 0.000000e+00
 -1.430710e-06
 -1.749922e-05
 1.123624e-06
 -1.585357e-05
 4.546637e-07
 -4.315783e-07
 -1.012530e-07
 -4.150075e-07
 -1.364800e-06
 3.616468e-07
 1.535917e-06
 1.183090e-06
 -1.603085e-05
 2.453366e-06
 6.316018e-07
 -1.932735e-05
 7.811908e-07
 1.326927e-06
 -2.109957e-06
 -1.634731e-06
 3.798809e-07
 -9.694899e-07
 1.943595e-08
 1.779718e-06
 -4.431333e-07
 -2.746832e-06
 -1.817165e-05
 1.077993e-06
 -1.672660e-05
 -1.110016e-07
 -5.563599e-07
 -7.248456e-07
 -2.088147e-07
 4.752567e-07
 1.572345e-06
 -1.728033e-05
 -1.750699e-05
 1.759189e-05
 2.735304e-07
 6.997755e-07
 5.151079e-07
 9.247981e-07
 1.714450e-06
 1.572409e-06
 -1.923923e-08
 -1.170203e-06
 -3.894213e-07
 1.039454e-08
 4.941813e-08
 0.000000e+00
 0.000000e+00
 -2.211787e-06
 1.709667e-05
 4.635511e-08
 -7.544401e-07
 -1.534110e-05
 1.443142e-06
 5.476609e-07
 -9.753969e-07
 -1.213828e-07
 1.809913e-05
 -1.080660e-06
 -5.052255e-07
 1.657164e-06
 3.652764e-06
 -1.697690e-05
 -3.137974e-07
 1.835099e-05
 -1.790219e-05
 -1.828590e-05
 -7.502870e-07
 -4.049185e-07
 -1.904946e-07
 9.180995e-08
 -4.330628e-08
 -1.753547e-06
 -1.475649e-06
 1.781713e-05
 1.729270e-06
 4.302963e-07
 1.771471e-06
 3.435429e-08
 1.649484e-05
 -3.738953e-07
 -5.707085e-08
 -6.912987e-07
 -1.623946e-06
 2.179332e-06
 2.455371e-06
 -4.659192e-07
 6.879324e-07
 9.719527e-07
 5.766342e-07
 1.862654e-07
 3.222742e-07
 -1.715961e-05
 -1.157288e-06
 -2.194612e-07
 7.140621e-07
 1.486525e-07
 0.000000e+00
 0.000000e+00
 4.257494e-07
 1.723000e-05
 -1.133801e-07
 1.680669e-05
 1.581278e-05
 1.498635e-06
 1.768826e-06
 9.265627e-07
 1.727129e-05
 -4.217348e-07
 -1.244670e-06
 1.572321e-05
 -1.294411e-07
 8.346301e-07
 -1.495573e-05
 2.941950e-06
 -1.021060e-06
 -2.431674e-06
 1.312979e-07
 3.794331e-07
 -2.891791e-07
 2.673761e-08
 1.103413e-06
 -5.695975e-08
 -9.565931e-07
 1.762786e-05
 -3.867105e-07
 -1.397425e-06
 -1.767497e-05
 1.396615e-07
 -1.658591e-05
 2.204194e-07
 -1.042866e-06
 1.402339e-07
 3.367318e-07
 2.599614e-07
 1.691501e-05
 3.906650e-07
 -1.913572e-07
 7.640404e-07
 2.781970e-06
 4.705291e-07
 -2.026357e-06
 -7.570988e-07
 2.242118e-06
 1.611139e-06
 1.694002e-05
 -1.033685e-07
 3.025920e-09
 0.000000e+00
 0.000000e+00
 7.386794e-07
 -7.759046e-07
 -5.058163e-07
 -1.464282e-05
 -9.409543e-07
 1.545000e-05
 1.974770e-06
 3.001603e-06
 1.031591e-06
 1.547362e-05
 -1.661719e-06
 -6.972946e-07
 1.502251e-05
 -1.322443e-06
 1.342577e-06
 -1.370021e-05
 1.918882e-06
 4.108207e-08
 -1.447306e-06
 -2.454208e-06
 -4.903798e-07
 4.012521e-07
 -1.095059e-06
 -1.729863e-05
 3.980824e-07
 -1.760068e-07
 -1.091338e-06
 -1.303400e-06
 -3.946789e-07
 -8.081378e-07
 -7.532350e-07
 2.258888e-06
 1.679995e-07
 6.603178e-07
 1.613422e-06
 1.632726e-06
 5.556804e-07
 1.646017e-05
 -1.179252e-06
 1.769791e-05
 1.214886e-06
 -1.700871e-05
 -2.566746e-07
 1.701057e-05
 2.269737e-07
 -1.618545e-05
 3.506308e-07
 -1.126740e-06
 -1.353184e-07
 0.000000e+00
 0.000000e+00
 -1.730697e-05
 -1.612239e-07
 -1.063369e-06
 -9.432405e-07
 -3.265907e-05
 1.308599e-06
 -4.534993e-07
 -1.663943e-05
 -1.606186e-05
 -1.697220e-05
 7.706348e-07
 1.872718e-05
 -1.253809e-06
 1.377716e-05
 -1.517368e-06
 1.114153e-06
 -1.578027e-05
 -1.723828e-05
 -1.738149e-05
 -1.689935e-07
 1.703086e-05
 -4.663401e-07
 -8.865510e-07
 1.865079e-05
 1.512986e-06
 1.691296e-05
 -1.580053e-06
 -3.521260e-07
 6.826638e-07
 1.316837e-07
 1.758840e-05
 1.796390e-05
 6.551397e-07
 1.824285e-05
 9.326489e-07
 1.042366e-06
 1.417746e-06
 3.846576e-07
 -3.782702e-07
 1.718846e-05
 -1.873414e-06
 1.150335e-06
 6.273273e-07
 -1.241904e-06
 -1.683601e-06
 2.261471e-07
 1.632835e-06
 2.360667e-07
 -2.719076e-09
 0.000000e+00
 0.000000e+00
 1.093631e-07
 1.055808e-06
 -3.716121e-07
 -1.476887e-06
 1.815547e-05
 3.002188e-06
 -2.091074e-07
 -4.297585e-07
 1.021502e-06
 1.118214e-06
 3.295430e-06
 -1.403661e-05
 1.255775e-06
 -1.650327e-06
 1.423136e-05
 -5.353616e-07
 -7.435812e-07
 5.095233e-08
 2.785385e-06
 2.342494e-06
 -7.115302e-07
 -1.490033e-06
 2.480543e-07
 -1.193367e-06
 -1.757310e-05
 1.206147e-06
 -6.601519e-07
 1.776817e-05
 3.341368e-07
 7.872521e-07
 -3.865884e-07
 -7.930735e-07
 -2.542638e-07
 6.613745e-07
 2.531345e-08
 3.360707e-07
 5.428137e-07
 6.572045e-07
 9.798287e-07
 -2.088057e-07
 -1.529236e-06
 -4.646481e-08
 -1.738390e-05
 1.685304e-05
 -1.987162e-06
 -2.463898e-07
 1.029603e-06
 3.454866e-07
 8.096959e-08
 0.000000e+00
 0.000000e+00
 -2.296910e-07
 -6.141775e-08
 -1.091276e-08
 5.484155e-07
 4.728239e-07
 -1.606505e-07
 4.729471e-07
 1.084899e-07
 3.214277e-07
 8.077466e-07
 1.805751e-05
 1.373536e-06
 -1.524760e-05
 -1.667566e-05
 -1.175622e-06
 -2.407041e-06
 -1.684687e-05
 2.724174e-07
 -1.094324e-07
 -1.676755e-05
 9.400827e-08
 -4.037071e-07
 9.617865e-07
 -1.553661e-06
 1.712276e-05
 2.433894e-06
 1.779488e-06
 1.940576e-06
 -5.684883e-07
 -5.491120e-07
 -9.113453e-07
 1.803683e-05
 1.200148e-06
 1.877678e-05
 -5.651803e-08
 -8.833701e-07
 -1.476231e-07
 1.259029e-06
 4.202539e-07
 -3.637719e-07
 5.418693e-08
 5.715819e-07
 6.941313e-07
 1.632431e-07
 -1.611434e-06
 1.702946e-05
 -1.244665e-07
 3.856663e-09
 2.099544e-09
 0.000000e+00
 0.000000e+00
 -1.533819e-06
 -5.394650e-07
 2.980899e-07
 -9.116137e-07
 5.927226e-07
 1.465636e-06
 1.593527e-06
 9.184230e-08
 -3.952904e-07
 1.145131e-06
 4.974864e-07
 -1.399650e-07
 1.222005e-06
 2.172338e-06
 4.916004e-08
 -3.457050e-06
 5.485207e-07
 -1.534384e-05
 -6.452347e-07
 1.514989e-06
 1.185561e-06
 -2.031730e-06
 2.343088e-07
 -1.514912e-05
 1.821593e-05
 -1.833987e-06
 1.430893e-06
 1.201919e-06
 -1.551771e-05
 7.079884e-07
 3.596243e-07
 2.039456e-05
 -2.099456e-07
 -1.657525e-06
 -1.794872e-05
 -3.503021e-07
 -1.079987e-06
 -1.282714e-06
 -1.718389e-05
 1.307923e-06
 1.663621e-06
 3.289731e-07
 -1.794216e-05
 1.119903e-07
 5.538183e-07
 -3.181100e-07
 -1.472069e-06
 -3.003952e-07
 -8.560138e-08
 0.000000e+00
 0.000000e+00
 -3.162157e-07
 1.622652e-05
 -1.616640e-06
 -1.038607e-07
 1.841432e-05
 1.305881e-06
 -3.996016e-08
 -1.817838e-05
 2.357284e-07
 5.131525e-07
 2.622446e-07
 -4.439703e-08
 -1.723264e-05
 -1.675524e-05
 -1.592508e-05
 -4.705503e-07
 1.559288e-05
 -1.620490e-05
 1.936810e-06
 3.012181e-07
 -1.708427e-05
 -1.057377e-06
 1.639207e-05
 3.675546e-06
 2.752474e-06
 -1.805697e-06
 1.639878e-05
 -1.913568e-05
 -9.437076e-07
 -3.253410e-05
 2.881805e-06
 7.801451e-07
 -3.614595e-05
 -1.124270e-06
 -2.902200e-07
 -1.632528e-05
 1.044246e-07
 -6.119216e-07
 1.776906e-05
 1.514210e-06
 3.942769e-07
 -1.679105e-05
 4.288725e-07
 9.571963e-07
 2.998370e-07
 -1.693359e-07
 -3.603061e-07
 -2.255911e-07
 -7.427762e-08
 0.000000e+00
 0.000000e+00
 -1.656768e-05
 4.839816e-08
 -1.303824e-06
 1.776884e-05
 -4.505008e-07
 -2.080093e-06
 -1.915774e-05
 -2.974182e-08
 1.693686e-06
 6.413451e-07
 1.627042e-07
 -9.174028e-07
 1.742694e-07
 8.456002e-07
 2.342142e-06
 -1.539110e-05
 -1.462777e-06
 -1.924971e-06
 -1.524873e-05
 2.513942e-06
 2.068941e-07
 2.105453e-06
 1.886628e-05
 1.687516e-05
 -1.728795e-05
 1.466108e-06
 -2.772964e-06
 -4.558048e-06
 -8.301238e-08
 1.952266e-05
 3.384204e-06
 -9.486130e-07
 -1.581861e-07
 2.141502e-06
 -3.597552e-07
 4.273677e-07
 1.651065e-06
 1.258643e-06
 4.767366e-07
 -1.016627e-06
 -9.907803e-07
 -1.520839e-07
 -1.588509e-05
 1.932972e-06
 4.893385e-07
 -5.541822e-07
 -6.009275e-08
 8.254204e-09
 1.283968e-08
 0.000000e+00
 0.000000e+00
 6.334802e-07
 1.790570e-06
 8.516602e-07
 -1.365422e-06
 -1.044746e-06
 -2.746572e-06
 -3.069105e-06
 1.506628e-06
 1.321719e-06
 5.227892e-07
 1.104547e-06
 -4.337304e-07
 -1.084254e-06
 -1.739310e-05
 1.817190e-07
 -1.738284e-05
 1.891294e-06
 7.970027e-07
 1.889055e-05
 2.800120e-06
 -1.570226e-05
 1.976249e-05
 1.557050e-06
 -1.940641e-06
 -3.951337e-06
 7.422081e-07
 -1.554682e-05
 1.453317e-05
 1.709809e-05
 1.833744e-06
 -6.530806e-07
 -6.067918e-07
 -3.191795e-07
 5.428429e-07
 6.495315e-07
 4.988808e-07
 -4.426805e-07
 7.352689e-07
 1.237469e-06
 6.967614e-08
 -6.793819e-07
 -1.293182e-06
 -1.170675e-08
 1.466287e-06
 -1.683514e-05
 6.586825e-07
 4.709319e-07
 2.755982e-07
 1.177200e-07
 0.000000e+00
 0.000000e+00
 6.037365e-07
 9.813646e-07
 5.195527e-07
 -3.289057e-07
 1.660560e-05
 -1.859385e-05
 1.555571e-05
 1.702278e-05
 -6.083763e-07
 -3.255758e-07
 -9.270395e-07
 -1.793965e-05
 -1.070833e-06
 3.866338e-07
 1.873574e-06
 2.534155e-06
 2.022596e-05
 1.398415e-06
 1.404426e-06
 9.790910e-07
 2.081175e-06
 1.786886e-06
 1.068850e-07
 1.526779e-06
 -3.619823e-07
 3.316533e-05
 5.672886e-07
 -1.662196e-05
 3.396709e-05
 -7.182371e-07
 -7.577685e-07
 -2.164302e-06
 -1.596720e-06
 1.029910e-06
 1.464465e-06
 8.061178e-07
 6.271624e-07
 1.793809e-05
 3.176727e-07
 1.005195e-06
 -5.967283e-07
 -1.346731e-06
 -4.647540e-07
 -1.794659e-06
 3.537320e-07
 2.674199e-06
 1.034112e-06
 4.905018e-07
 1.754734e-07
 0.000000e+00
 0.000000e+00
 3.959211e-07
 2.241096e-06
 4.597407e-07
 -1.306283e-07
 -1.027846e-06
 -4.973188e-07
 1.761680e-06
 1.603215e-05
 -2.003135e-06
 1.654108e-05
 -2.381777e-06
 1.633224e-05
 2.132587e-06
 1.859667e-05
 -6.892576e-07
 1.497755e-06
 -1.555845e-05
 2.122667e-07
 2.186291e-06
 2.128385e-06
 -1.694919e-05
 6.410646e-07
 1.465673e-06
 2.495906e-06
 -1.556981e-05
 -8.876039e-07
 -2.698492e-06
 2.099112e-06
 1.904140e-05
 -2.654673e-06
 -1.071395e-06
 -1.966258e-06
 1.680111e-05
 1.787233e-05
 3.350805e-07
 7.593569e-07
 1.347631e-06
 2.864542e-07
 -1.246915e-06
 -4.732900e-07
 -1.897659e-05
 -2.477424e-07
 6.426794e-07
 -1.210532e-08
 1.660501e-05
 6.974637e-07
 1.433888e-06
 4.390712e-07
 9.047777e-08
 0.000000e+00
 0.000000e+00
 1.722975e-05
 -8.612590e-07
 -1.743418e-05
 2.869001e-07
 1.369008e-07
 2.873832e-07
 2.212609e-06
 -2.867200e-08
 -1.860843e-06
 -4.805978e-07
 -1.788913e-08
 1.839675e-05
 1.782889e-05
 6.018291e-08
 -2.592230e-06
 1.656415e-05
 -1.212741e-07
 1.075482e-06
 4.959282e-07
 -1.752452e-05
 -1.618054e-05
 1.927788e-06
 3.055801e-06
 1.373390e-06
 -1.723337e-05
 1.486471e-06
 4.086863e-07
 1.750391e-06
 1.987137e-06
 -1.010204e-06
 -7.561804e-07
 3.376978e-07
 1.733973e-05
 -3.110746e-06
 -1.649051e-06
 8.546114e-07
 5.374655e-07
 1.787120e-07
 -2.899420e-07
 -9.238727e-07
 5.256221e-09
 1.865031e-05
 2.226904e-07
 1.018977e-06
 4.248489e-07
 1.684599e-05
 2.335466e-07
 -1.163721e-07
 -2.556882e-07
 0.000000e+00
 0.000000e+00
 -1.768590e-05
 -2.541218e-06
 -4.340549e-08
 1.545995e-06
 1.543815e-06
 -8.743733e-07
 -4.412548e-07
 -1.672483e-05
 -1.027093e-06
 -5.739310e-07
 2.779730e-06
 4.086425e-06
 -1.423907e-08
 -5.720200e-07
 6.268882e-08
 1.630859e-05
 4.300373e-07
 1.534435e-05
 -4.273303e-06
 -2.889187e-07
 3.093121e-06
 3.386506e-06
 2.150149e-05
 -1.714749e-05
 3.870927e-07
 1.829811e-06
 3.072264e-07
 9.166889e-07
 8.778497e-07
 -1.658946e-05
 3.000787e-06
 2.259143e-07
 -1.349353e-06
 -2.552275e-06
 1.628867e-05
 1.357952e-07
 -1.341763e-08
 9.755650e-08
 1.274718e-07
 8.218827e-08
 1.821728e-06
 1.243189e-07
 -1.732989e-06
 2.734168e-07
 1.229437e-06
 1.407194e-06
 -6.738487e-08
 -1.090621e-06
 -1.089659e-06
 0.000000e+00
 0.000000e+00
 -1.675306e-05
 2.901386e-06
 5.565156e-07
 -3.693744e-08
 6.591628e-07
 -1.719845e-05
 1.690457e-05
 3.760754e-07
 1.897544e-06
 1.863957e-05
 1.885613e-05
 1.302626e-06
 -1.563142e-05
 4.415245e-07
 -1.741293e-05
 -4.043956e-07
 -1.145018e-06
 -3.601441e-05
 1.528603e-05
 1.698117e-05
 6.809890e-07
 1.752500e-06
 1.240944e-06
 -3.550025e-05
 1.439901e-06
 -1.683981e-05
 1.450419e-06
 4.917189e-07
 -5.453975e-08
 1.285802e-06
 2.084023e-06
 -3.378807e-05
 2.054647e-05
 6.680474e-07
 1.523089e-05
 -2.300019e-06
 -7.227717e-07
 -2.717246e-08
 1.364003e-06
 -2.678658e-08
 -9.297141e-07
 -1.755996e-05
 1.384369e-07
 1.954325e-07
 1.722635e-07
 -8.256279e-08
 -1.772203e-05
 -1.764045e-05
 -7.944895e-08
 0.000000e+00
 0.000000e+00
 8.825314e-07
 3.921275e-06
 -1.752622e-05
 1.191632e-06
 1.140507e-06
 1.190945e-06
 5.999835e-07
 -5.124381e-07
 1.297155e-06
 1.952570e-06
 3.790518e-07
 -1.579774e-06
 -1.743705e-08
 -1.557968e-05
 5.837099e-07
 5.170912e-07
 -1.401956e-06
 -5.075072e-07
 1.545701e-06
 -9.505911e-07
 -1.318849e-06
 -5.589784e-07
 -1.390279e-06
 -1.798165e-05
 3.456540e-06
 4.416382e-06
 2.084027e-05
 1.814535e-06
 1.713395e-05
 -5.565217e-07
 -6.638717e-07
 9.528090e-08
 3.110979e-06
 -3.390598e-05
 -2.990935e-07
 -2.323432e-06
 -1.258464e-06
 -4.690636e-07
 1.188730e-06
 -1.747959e-05
 -2.487863e-06
 2.365429e-08
 2.106522e-06
 3.113163e-07
 -4.427192e-07
 -1.311672e-06
 -8.869468e-07
 1.263880e-06
 1.414549e-06
 0.000000e+00
 0.000000e+00
 1.783834e-05
 -2.769953e-07
 -1.713911e-05
 1.943357e-05
 -1.562094e-05
 3.428754e-06
 1.659604e-06
 1.758925e-05
 6.730173e-07
 1.829544e-05
 1.513198e-06
 -2.917495e-07
 -1.823338e-06
 -1.092610e-08
 -1.571348e-05
 1.070690e-06
 1.887728e-06
 9.664897e-07
 1.843779e-05
 1.658453e-05
 -4.420180e-06
 -2.366809e-06
 4.457609e-07
 7.246716e-07
 2.057765e-05
 3.603729e-06
 -1.521657e-05
 5.240031e-07
 -1.418171e-05
 1.729049e-05
 -1.663715e-06
 -4.019279e-07
 1.624373e-05
 4.902032e-07
 2.312075e-06
 -9.276528e-07
 -2.481259e-06
 -1.261660e-06
 -4.403149e-07
 -1.680989e-05
 2.957409e-06
 1.801903e-05
 -3.372926e-07
 9.314776e-07
 -1.576600e-06
 -1.113296e-06
 4.950294e-07
 1.965385e-07
 2.492909e-07
 0.000000e+00
 0.000000e+00
 1.870323e-06
 -2.057820e-06
 -1.017302e-06
 4.385312e-08
 1.339305e-06
 5.452961e-06
 -1.440168e-05
 6.953723e-07
 6.056124e-08
 -9.780801e-07
 -1.375493e-07
 -1.711151e-05
 -5.336829e-08
 -7.018711e-07
 3.754197e-07
 2.585865e-06
 1.414494e-06
 -1.470643e-05
 1.491888e-06
 -1.910071e-05
 -1.726686e-06
 3.335127e-05
 1.766147e-05
 2.255023e-06
 1.857858e-05
 -1.757532e-06
 1.286169e-06
 3.678454e-06
 1.934083e-05
 -3.406106e-05
 1.842431e-07
 6.122546e-07
 -1.820118e-06
 5.654156e-08
 8.201576e-07
 -2.086747e-06
 -1.164869e-06
 1.453797e-05
 -2.754590e-06
 1.487380e-06
 3.422969e-06
 -1.679356e-05
 -1.061947e-06
 -2.675877e-07
 -1.865832e-05
 1.853402e-05
 6.589365e-07
 -6.732358e-07
 -9.562736e-08
 0.000000e+00
 0.000000e+00
 -1.429410e-05
 -1.576226e-05