<VTKFile type="UnstructuredGrid"  version="0.1"   >
<UnstructuredGrid>  
<Piece  NumberOfPoints="     2601"  NumberOfCells="     5000">  
<Points>  
<DataArray  type="Float64"  NumberOfComponents="3"  format="ascii">  
 0.000000 0.000000 0.000000 
 0.020000 0.000000 0.000000 
 0.040000 0.000000 0.000000 
 0.060000 0.000000 0.000000 
 0.080000 0.000000 0.000000 
 0.100000 0.000000 0.000000 
 0.120000 0.000000 0.000000 
 0.140000 0.000000 0.000000 
 0.160000 0.000000 0.000000 
 0.180000 0.000000 0.000000 
 0.200000 0.000000 0.000000 
 0.220000 0.000000 0.000000 
 0.240000 0.000000 0.000000 
 0.260000 0.000000 0.000000 
 0.280000 0.000000 0.000000 
 0.300000 0.000000 0.000000 
 0.320000 0.000000 0.000000 
 0.340000 0.000000 0.000000 
 0.360000 0.000000 0.000000 
 0.380000 0.000000 0.000000 
 0.400000 0.000000 0.000000 
 0.420000 0.000000 0.000000 
 0.440000 0.000000 0.000000 
 0.460000 0.000000 0.000000 
 0.480000 0.000000 0.000000 
 0.500000 0.000000 0.000000 
 0.520000 0.000000 0.000000 
 0.540000 0.000000 0.000000 
 0.560000 0.000000 0.000000 
 0.580000 0.000000 0.000000 
 0.600000 0.000000 0.000000 
 0.620000 0.000000 0.000000 
 0.640000 0.000000 0.000000 
 0.660000 0.000000 0.000000 
 0.680000 0.000000 0.000000 
 0.700000 0.000000 0.000000 
 0.720000 0.000000 0.000000 
 0.740000 0.000000 0.000000 
 0.760000 0.000000 0.000000 
 0.780000 0.000000 0.000000 
 0.800000 0.000000 0.000000 
 0.820000 0.000000 0.000000 
 0.840000 0.000000 0.000000 
 0.860000 0.000000 0.000000 
 0.880000 0.000000 0.000000 
 0.900000 0.000000 0.000000 
 0.920000 0.000000 0.000000 
 0.940000 0.000000 0.000000 
 0.960000 0.000000 0.000000 
 0.980000 0.000000 0.000000 
 1.000000 0.000000 0.000000 
 0.000000 0.020000 0.000000 
 0.020000 0.020000 0.000000 
 0.040000 0.020000 0.000000 
 0.060000 0.020000 0.000000 
 0.080000 0.020000 0.000000 
 0.100000 0.020000 0.000000 
 0.120000 0.020000 0.000000 
 0.140000 0.020000 0.000000 
 0.160000 0.020000 0.000000 
 0.180000 0.020000 0.000000 
 0.200000 0.020000 0.000000 
 0.220000 0.020000 0.000000 
 0.240000 0.020000 0.000000 
 0.260000 0.020000 0.000000 
 0.280000 0.020000 0.000000 
 0.300000 0.020000 0.000000 
 0.320000 0.020000 0.000000 
 0.340000 0.020000 0.000000 
 0.360000 0.020000 0.000000 
 0.380000 0.020000 0.000000 
 0.400000 0.020000 0.000000 
 0.420000 0.020000 0.000000 
 0.440000 0.020000 0.000000 
 0.460000 0.020000 0.000000 
 0.480000 0.020000 0.000000 
 0.500000 0.020000 0.000000 
 0.520000 0.020000 0.000000 
 0.540000 0.020000 0.000000 
 0.560000 0.020000 0.000000 
 0.580000 0.020000 0.000000 
 0.600000 0.020000 0.000000 
 0.620000 0.020000 0.000000 
 0.640000 0.020000 0.000000 
 0.660000 0.020000 0.000000 
 0.680000 0.020000 0.000000 
 0.700000 0.020000 0.000000 
 0.720000 0.020000 0.000000 
 0.740000 0.020000 0.000000 
 0.760000 0.020000 0.000000 
 0.780000 0.020000 0.000000 
 0.800000 0.020000 0.000000 
 0.820000 0.020000 0.000000 
 0.840000 0.020000 0.000000 
 0.860000 0.020000 0.000000 
 0.880000 0.020000 0.000000 
 0.900000 0.020000 0.000000 
 0.920000 0.020000 0.000000 
 0.940000 0.020000 0.000000 
 0.960000 0.020000 0.000000 
 0.980000 0.020000 0.000000 
 1.000000 0.020000 0.000000 
 0.000000 0.040000 0.000000 
 0.020000 0.040000 0.000000 
 0.040000 0.040000 0.000000 
 0.060000 0.040000 0.000000 
 0.080000 0.040000 0.000000 
 0.100000 0.040000 0.000000 
 0.120000 0.040000 0.000000 
 0.140000 0.040000 0.000000 
 0.160000 0.040000 0.000000 
 0.180000 0.040000 0.000000 
 0.200000 0.040000 0.000000 
 0.220000 0.040000 0.000000 
 0.240000 0.040000 0.000000 
 0.260000 0.040000 0.000000 
 0.280000 0.040000 0.000000 
 0.300000 0.040000 0.000000 
 0.320000 0.040000 0.000000 
 0.340000 0.040000 0.000000 
 0.360000 0.040000 0.000000 
 0.380000 0.040000 0.000000 
 0.400000 0.040000 0.000000 
 0.420000 0.040000 0.000000 
 0.440000 0.040000 0.000000 
 0.460000 0.040000 0.000000 
 0.480000 0.040000 0.000000 
 0.500000 0.040000 0.000000 
 0.520000 0.040000 0.000000 
 0.540000 0.040000 0.000000 
 0.560000 0.040000 0.000000 
 0.580000 0.040000 0.000000 
 0.600000 0.040000 0.000000 
 0.620000 0.040000 0.000000 
 0.640000 0.040000 0.000000 
 0.660000 0.040000 0.000000 
 0.680000 0.040000 0.000000 
 0.700000 0.040000 0.000000 
 0.720000 0.040000 0.000000 
 0.740000 0.040000 0.000000 
 0.760000 0.040000 0.000000 
 0.780000 0.040000 0.000000 
 0.800000 0.040000 0.000000 
 0.820000 0.040000 0.000000 
 0.840000 0.040000 0.000000 
 0.860000 0.040000 0.000000 
 0.880000 0.040000 0.000000 
 0.900000 0.040000 0.000000 
 0.920000 0.040000 0.000000 
 0.940000 0.040000 0.000000 
 0.960000 0.040000 0.000000 
 0.980000 0.040000 0.000000 
 1.000000 0.040000 0.000000 
 0.000000 0.060000 0.000000 
 0.020000 0.060000 0.000000 
 0.040000 0.060000 0.000000 
 0.060000 0.060000 0.000000 
 0.080000 0.060000 0.000000 
 0.100000 0.060000 0.000000 
 0.120000 0.060000 0.000000 
 0.140000 0.060000 0.000000 
 0.160000 0.060000 0.000000 
 0.180000 0.060000 0.000000 
 0.200000 0.060000 0.000000 
 0.220000 0.060000 0.000000 
 0.240000 0.060000 0.000000 
 0.260000 0.060000 0.000000 
 0.280000 0.060000 0.000000 
 0.300000 0.060000 0.000000 
 0.320000 0.060000 0.000000 
 0.340000 0.060000 0.000000 
 0.360000 0.060000 0.000000 
 0.380000 0.060000 0.000000 
 0.400000 0.060000 0.000000 
 0.420000 0.060000 0.000000 
 0.440000 0.060000 0.000000 
 0.460000 0.060000 0.000000 
 0.480000 0.060000 0.000000 
 0.500000 0.060000 0.000000 
 0.520000 0.060000 0.000000 
 0.540000 0.060000 0.000000 
 0.560000 0.060000 0.000000 
 0.580000 0.060000 0.000000 
 0.600000 0.060000 0.000000 
 0.620000 0.060000 0.000000 
 0.640000 0.060000 0.000000 
 0.660000 0.060000 0.000000 
 0.680000 0.060000 0.000000 
 0.700000 0.060000 0.000000 
 0.720000 0.060000 0.000000 
 0.740000 0.060000 0.000000 
 0.760000 0.060000 0.000000 
 0.780000 0.060000 0.000000 
 0.800000 0.060000 0.000000 
 0.820000 0.060000 0.000000 
 0.840000 0.060000 0.000000 
 0.860000 0.060000 0.000000 
 0.880000 0.060000 0.000000 
 0.900000 0.060000 0.000000 
 0.920000 0.060000 0.000000 
 0.940000 0.060000 0.000000 
 0.960000 0.060000 0.000000 
 0.980000 0.060000 0.000000 
 1.000000 0.060000 0.000000 
 0.000000 0.080000 0.000000 
 0.020000 0.080000 0.000000 
 0.040000 0.080000 0.000000 
 0.060000 0.080000 0.000000 
 0.080000 0.080000 0.000000 
 0.100000 0.080000 0.000000 
 0.120000 0.080000 0.000000 
 0.140000 0.080000 0.000000 
 0.160000 0.080000 0.000000 
 0.180000 0.080000 0.000000 
 0.200000 0.080000 0.000000 
 0.220000 0.080000 0.000000 
 0.240000 0.080000 0.000000 
 0.260000 0.080000 0.000000 
 0.280000 0.080000 0.000000 
 0.300000 0.080000 0.000000 
 0.320000 0.080000 0.000000 
 0.340000 0.080000 0.000000 
 0.360000 0.080000 0.000000 
 0.380000 0.080000 0.000000 
 0.400000 0.080000 0.000000 
 0.420000 0.080000 0.000000 
 0.440000 0.080000 0.000000 
 0.460000 0.080000 0.000000 
 0.480000 0.080000 0.000000 
 0.500000 0.080000 0.000000 
 0.520000 0.080000 0.000000 
 0.540000 0.080000 0.000000 
 0.560000 0.080000 0.000000 
 0.580000 0.080000 0.000000 
 0.600000 0.080000 0.000000 
 0.620000 0.080000 0.000000 
 0.640000 0.080000 0.000000 
 0.660000 0.080000 0.000000 
 0.680000 0.080000 0.000000 
 0.700000 0.080000 0.000000 
 0.720000 0.080000 0.000000 
 0.740000 0.080000 0.000000 
 0.760000 0.080000 0.000000 
 0.780000 0.080000 0.000000 
 0.800000 0.080000 0.000000 
 0.820000 0.080000 0.000000 
 0.840000 0.080000 0.000000 
 0.860000 0.080000 0.000000 
 0.880000 0.080000 0.000000 
 0.900000 0.080000 0.000000 
 0.920000 0.080000 0.000000 
 0.940000 0.080000 0.000000 
 0.960000 0.080000 0.000000 
 0.980000 0.080000 0.000000 
 1.000000 0.080000 0.000000 
 0.000000 0.100000 0.000000 
 0.020000 0.100000 0.000000 
 0.040000 0.100000 0.000000 
 0.060000 0.100000 0.000000 
 0.080000 0.100000 0.000000 
 0.100000 0.100000 0.000000 
 0.120000 0.100000 0.000000 
 0.140000 0.100000 0.000000 
 0.160000 0.100000 0.000000 
 0.180000 0.100000 0.000000 
 0.200000 0.100000 0.000000 
 0.220000 0.100000 0.000000 
 0.240000 0.100000 0.000000 
 0.260000 0.100000 0.000000 
 0.280000 0.100000 0.000000 
 0.300000 0.100000 0.000000 
 0.320000 0.100000 0.000000 
 0.340000 0.100000 0.000000 
 0.360000 0.100000 0.000000 
 0.380000 0.100000 0.000000 
 0.400000 0.100000 0.000000 
 0.420000 0.100000 0.000000 
 0.440000 0.100000 0.000000 
 0.460000 0.100000 0.000000 
 0.480000 0.100000 0.000000 
 0.500000 0.100000 0.000000 
 0.520000 0.100000 0.000000 
 0.540000 0.100000 0.000000 
 0.560000 0.100000 0.000000 
 0.580000 0.100000 0.000000 
 0.600000 0.100000 0.000000 
 0.620000 0.100000 0.000000 
 0.640000 0.100000 0.000000 
 0.660000 0.100000 0.000000 
 0.680000 0.100000 0.000000 
 0.700000 0.100000 0.000000 
 0.720000 0.100000 0.000000 
 0.740000 0.100000 0.000000 
 0.760000 0.100000 0.000000 
 0.780000 0.100000 0.000000 
 0.800000 0.100000 0.000000 
 0.820000 0.100000 0.000000 
 0.840000 0.100000 0.000000 
 0.860000 0.100000 0.000000 
 0.880000 0.100000 0.000000 
 0.900000 0.100000 0.000000 
 0.920000 0.100000 0.000000 
 0.940000 0.100000 0.000000 
 0.960000 0.100000 0.000000 
 0.980000 0.100000 0.000000 
 1.000000 0.100000 0.000000 
 0.000000 0.120000 0.000000 
 0.020000 0.120000 0.000000 
 0.040000 0.120000 0.000000 
 0.060000 0.120000 0.000000 
 0.080000 0.120000 0.000000 
 0.100000 0.120000 0.000000 
 0.120000 0.120000 0.000000 
 0.140000 0.120000 0.000000 
 0.160000 0.120000 0.000000 
 0.180000 0.120000 0.000000 
 0.200000 0.120000 0.000000 
 0.220000 0.120000 0.000000 
 0.240000 0.120000 0.000000 
 0.260000 0.120000 0.000000 
 0.280000 0.120000 0.000000 
 0.300000 0.120000 0.000000 
 0.320000 0.120000 0.000000 
 0.340000 0.120000 0.000000 
 0.360000 0.120000 0.000000 
 0.380000 0.120000 0.000000 
 0.400000 0.120000 0.000000 
 0.420000 0.120000 0.000000 
 0.440000 0.120000 0.000000 
 0.460000 0.120000 0.000000 
 0.480000 0.120000 0.000000 
 0.500000 0.120000 0.000000 
 0.520000 0.120000 0.000000 
 0.540000 0.120000 0.000000 
 0.560000 0.120000 0.000000 
 0.580000 0.120000 0.000000 
 0.600000 0.120000 0.000000 
[...]
<PointData  Scalars="U"> 
<DataArray  type="Float64"  Name="U"  format="ascii"> 
 0.000000e+00
 0.000000e+00
 0.000000e+00
 0.000000e+00
 0.000000e+00
 0.000000e+00
 0.000000e+00
 0.000000e+00
 0.000000e+00
 0.000000e+00
 0.000000e+00
 0.000000e+00
 0.000000e+00
 0.000000e+00
 0.000000e+00
 0.000000e+00
 0.000000e+00
 0.000000e+00
 0.000000e+00
 0.000000e+00
 0.000000e+00
 0.000000e+00
 0.000000e+00
 0.000000e+00
 0.000000e+00
 0.000000e+00
 0.000000e+00
 0.000000e+00
 0.000000e+00
 0.000000e+00
 0.000000e+00
 0.000000e+00
 0.000000e+00
 0.000000e+00
 0.000000e+00
 0.000000e+00
 0.000000e+00
 0.000000e+00
 0.000000e+00
 0.000000e+00
 0.000000e+00
 0.000000e+00
 0.000000e+00
 0.000000e+00
 0.000000e+00
 0.000000e+00
 0.000000e+00
 0.000000e+00
 0.000000e+00
 0.000000e+00
 0.000000e+00
 0.000000e+00
 -3.644473e-10
 -7.263307e-10
 -1.082567e-09
 -1.429033e-09
 -1.760067e-09
 -2.068039e-09
 -2.343089e-09
 -2.573195e-09
 -2.744718e-09
 -2.843615e-09
 -2.857333e-09
 -2.777256e-09
 -2.601267e-09
 -2.335770e-09
 -1.996440e-09
 -1.607226e-09
 -1.197596e-09
 -7.986655e-10
 -4.392093e-10
 -1.425571e-10
 7.502830e-11
 2.044960e-10
 2.431570e-10
 1.935077e-10
 6.228494e-11
 -1.399940e-10
 -3.990833e-10
 -6.969827e-10
 -1.012264e-09
 -1.321120e-09
 -1.599298e-09
 -1.824797e-09
 -1.980902e-09
 -2.058867e-09
 -2.059481e-09
 -1.992892e-09
 -1.876472e-09
 -1.731079e-09
 -1.576658e-09
 -1.428371e-09
 -1.294271e-09
 -1.174981e-09
 -1.065173e-09
 -9.561499e-10
 -8.386784e-10
 -7.053407e-10
 -5.518913e-10
 -3.769861e-10
 -1.772224e-10
 0.000000e+00
 0.000000e+00
 -7.313719e-10
 -1.458135e-09
 -2.174645e-09
 -2.873165e-09
 -3.542818e-09
 -4.168623e-09
 -4.730837e-09
 -5.204883e-09
 -5.562296e-09
 -5.773061e-09
 -5.809559e-09
 -5.651879e-09
 -5.293639e-09
 -4.746800e-09
 -4.043720e-09
 -3.235146e-09
 -2.384074e-09
 -1.556906e-09
 -8.143935e-10
 -2.048167e-10
 2.392429e-10
 5.006552e-10
 5.753157e-10
 4.692066e-10
 1.962448e-10
 -2.225420e-10
 -7.587642e-10
 -1.376160e-09
 -2.030857e-09
 -2.673285e-09
 -3.252164e-09
 -3.720347e-09
 -4.041585e-09
 -4.196703e-09
 -4.187413e-09
 -4.036216e-09
 -3.781750e-09
 -3.470344e-09
 -3.145938e-09
 -2.841264e-09
 -2.572709e-09
 -2.339913e-09
 -2.129487e-09
 -1.921078e-09
 -1.693791e-09
 -1.431362e-09
 -1.125294e-09
 -7.759797e-10
 -3.940542e-10
 0.000000e+00
 0.000000e+00
 -1.102733e-09
 -2.199845e-09
 -3.284187e-09
 -4.345475e-09
 -5.368604e-09
 -6.331967e-09
 -7.206064e-09
 -7.952900e-09
 -8.526879e-09
 -8.878043e-09
 -8.958243e-09
 -8.730198e-09
 -8.178129e-09
 -7.317261e-09
 -6.198614e-09
 -4.906138e-09
 -3.545639e-09
 -2.228303e-09
 -1.053924e-09
 -9.892181e-11
 5.882884e-10
 9.852213e-10
 1.089526e-09
 9.129109e-10
 4.772485e-10
 -1.863203e-10
 -1.035955e-09
 -2.017026e-09
 -3.061381e-09
 -4.089658e-09
 -5.017556e-09
 -5.765756e-09
 -6.271982e-09
 -6.502546e-09
 -6.460056e-09
 -6.184140e-09
 -5.743535e-09
 -5.220629e-09
 -4.692622e-09
 -4.215127e-09
 -3.813147e-09
 -3.481310e-09
 -3.191729e-09
 -2.905718e-09
 -2.585403e-09
 -2.202534e-09
 -1.743430e-09
 -1.210370e-09
 -6.202301e-10
 0.000000e+00
 0.000000e+00
 -1.479461e-09
 -2.953807e-09
 -4.415980e-09
 -5.854853e-09
 -7.252819e-09
 -8.583117e-09
 -9.807223e-09
 -1.087296e-08
 -1.171449e-08
 -1.225575e-08
 -1.241878e-08
 -1.213784e-08
 -1.137761e-08
 -1.015123e-08
 -8.531145e-09
 -6.646056e-09
 -4.662000e-09
 -2.752623e-09
 -1.069215e-09
 2.791926e-10
 1.230969e-09
 1.764691e-09
 1.886258e-09
 1.617138e-09
 9.879221e-10
 3.813713e-11
 -1.179365e-09
 -2.592627e-09
 -4.107049e-09
 -5.607177e-09
 -6.965497e-09
 -8.058009e-09
 -8.784291e-09
 -9.087868e-09
 -8.971199e-09
 -8.499131e-09
 -7.786683e-09
 -6.972197e-09
 -6.183419e-09
 -5.508190e-09
 -4.979583e-09
 -4.578661e-09
 -4.250624e-09
 -3.926377e-09
 -3.542099e-09
 -3.052670e-09
 -2.438033e-09
 -1.703663e-09
 -8.768150e-10
 0.000000e+00
 0.000000e+00
 -1.860986e-09
 -3.719273e-09
 -5.569999e-09
 -7.403615e-09
 -9.202722e-09
 -1.093814e-08
 -1.256438e-08
 -1.401537e-08
 -1.520191e-08
 -1.601357e-08
 -1.632837e-08
 -1.603306e-08
 -1.505352e-08
 -1.338876e-08
 -1.113523e-08
 -8.486215e-09
 -5.699643e-09
 -3.043488e-09
 -7.412397e-10
 1.060796e-09
 2.296213e-09
 2.958744e-09
 3.075014e-09
 2.682817e-09
 1.821344e-09
 5.335608e-10
 -1.123086e-09
 -3.063388e-09
 -5.164805e-09
 -7.266954e-09
 -9.183158e-09
 -1.072397e-08
 -1.172945e-08
 -1.210429e-08
 -1.184655e-08
 -1.105860e-08
 -9.929970e-09
 -8.690966e-09
 -7.551013e-09
 -6.645569e-09
 -6.012215e-09
 -5.600812e-09
 -5.306798e-09
 -5.010388e-09
 -4.608292e-09
 -4.032382e-09
 -3.256078e-09
 -2.292014e-09
 -1.184586e-09
 0.000000e+00
 0.000000e+00
 -2.244859e-09
 -4.491538e-09
 -6.739842e-09
 -8.984939e-09
 -1.121360e-08
 -1.339884e-08
 -1.549281e-08
 -1.741849e-08
 -1.906199e-08
 -2.026938e-08
 -2.085444e-08
 -2.062496e-08
 -1.943161e-08
 -1.723218e-08
 -1.414626e-08
 -1.046560e-08
 -6.598774e-09
 -2.966669e-09
 1.009248e-10
 2.419235e-09
 3.939638e-09
 4.700559e-09
 4.772115e-09
 4.218158e-09
 3.083419e-09
 1.402582e-09
 -7.766693e-10
 -3.366374e-09
 -6.217102e-09
 -9.111959e-09
 -1.178104e-08
 -1.393617e-08
 -1.532133e-08
 -1.577151e-08
 -1.526750e-08
 -1.396605e-08
 -1.217988e-08
 -1.029747e-08
 -8.666757e-09
 -7.495568e-09
 -6.813683e-09
 -6.503290e-09
 -6.368507e-09
 -6.206297e-09
 -5.855467e-09
 -5.219159e-09
 -4.267243e-09
 -3.027386e-09
 -1.571339e-09
 0.000000e+00
 0.000000e+00
 -2.626591e-09
 -5.261441e-09
 -7.911536e-09
 -1.058045e-08
 -1.326447e-08
 -1.594596e-08
 -1.858328e-08
 -2.109681e-08
 -2.335226e-08
 -2.514583e-08
 -2.620171e-08
 -2.619876e-08
 -2.484406e-08
 -2.199281e-08
 -1.777305e-08
 -1.263317e-08
 -7.246429e-09
 -2.299238e-09
 1.716231e-09
 4.590198e-09
 6.347261e-09
 7.129948e-09
 7.090912e-09
 6.332211e-09
 4.893638e-09
 2.776904e-09
 -9.113136e-12
 -3.396498e-09
 -7.215849e-09
 -1.117924e-08
 -1.489800e-08
 -1.793355e-08
 -1.987317e-08
 -2.042368e-08
 -1.951376e-08
 -1.737200e-08
 -1.451880e-08
 -1.162697e-08
 -9.291222e-09
 -7.830548e-09
 -7.230690e-09
 -7.229669e-09
 -7.465407e-09
 -7.602113e-09
 -7.399543e-09
 -6.731293e-09
 -5.573720e-09
 -3.983798e-09
 -2.075769e-09
 0.000000e+00
 0.000000e+00
 -2.999878e-09
 -6.015579e-09
 -9.063262e-09
 -1.215866e-08
 -1.531398e-08
 -1.853099e-08
 -2.178841e-08
 -2.502134e-08
 -2.809159e-08
 -3.075104e-08
 -3.261099e-08
 -3.314866e-08
 -3.180070e-08
 -2.817980e-08
 -2.236123e-08
 -1.504962e-08
 -7.418295e-09
 -6.487901e-10
 4.514013e-09
 7.897256e-09
 9.729459e-09
 1.037120e-08
 1.011801e-08
 9.119209e-09
 7.383015e-09
 4.830609e-09
 1.377462e-09
 -2.973875e-09
 -8.052803e-09
 -1.348219e-08
 -1.870196e-08
 -2.304645e-08
 -2.585157e-08
 -2.658870e-08
 -2.504463e-08
 -2.151779e-08
 -1.688233e-08
 -1.234996e-08
 -8.980652e-09
 -7.261730e-09
 -7.033036e-09
 -7.725468e-09
 -8.678740e-09
 -9.356968e-09
 -9.426688e-09
 -8.746191e-09
 -7.322016e-09
 -5.264265e-09
 -2.750795e-09
 0.000000e+00
 0.000000e+00
 -3.357427e-09
 -6.737727e-09
 -1.016679e-08
 -1.367536e-08
 -1.729816e-08
 -2.106864e-08
 -2.500602e-08
 -2.909018e-08
 -3.321737e-08
 -3.713096e-08
 -4.033198e-08
 -4.201079e-08
 -4.111044e-08
 -3.667974e-08
 -2.853062e-08
 -1.778655e-08
 -6.645217e-09
 2.713261e-09
 9.160650e-09
 1.277465e-08
 1.428772e-08
 1.448065e-08
 1.386591e-08
 1.262838e-08
 1.068728e-08
 7.799844e-09
 3.691465e-09
 -1.787357e-09
 -8.507225e-09
 -1.597642e-08
 -2.338092e-08
 -2.971981e-08
 -3.394938e-08
 -3.512358e-08
 -3.266380e-08
 -2.683708e-08
 -1.911533e-08
 -1.180301e-08
 -6.902022e-09
 -5.132756e-09
 -5.902703e-09
 -7.985371e-09
 -1.020330e-08
 -1.175306e-08
 -1.222869e-08
 -1.152174e-08
 -9.714934e-09
 -7.007053e-09
 -3.666228e-09
 0.000000e+00
 0.000000e+00
 -3.692640e-09
 -7.411982e-09
 -1.119162e-08
 -1.507779e-08
 -1.913264e-08
 -2.343333e-08
 -2.806368e-08
 -3.309120e-08
 -3.851611e-08
 -4.416840e-08
 -4.952540e-08
 -5.345891e-08
 -5.407873e-08
 -4.914168e-08
 -3.750388e-08
 -2.091564e-08
 -3.883305e-09
 9.209272e-09
 1.674915e-08
 1.975097e-08
 2.011392e-08
 1.934020e-08
 1.819149e-08
 1.681345e-08
 1.493168e-08
 1.201073e-08
 7.424394e-09
 7.044772e-10
 -8.155569e-09
 -1.850433e-08
 -2.911940e-08
 -3.851512e-08
 -4.515574e-08
 -4.743453e-08
 -4.387408e-08
 -3.421739e-08
 -2.088332e-08
 -8.598462e-09
 -1.450852e-09
 -3.611982e-10
 -3.479973e-09
 -8.181122e-09
 -1.246528e-08
 -1.527266e-08
 -1.624408e-08
 -1.541566e-08
 -1.302005e-08
 -9.389137e-09
 -4.909942e-09
 0.000000e+00
 0.000000e+00
 -4.002333e-09
 -8.028107e-09
 -1.211269e-08
 -1.631425e-08
 -2.072273e-08
 -2.546641e-08
 -3.071432e-08
 -3.666878e-08
 -4.353132e-08
 -5.139918e-08
 -6.000067e-08
 -6.812727e-08
 -7.276636e-08
 -6.884715e-08
 -5.198832e-08
 -2.445904e-08
 3.382435e-09
 2.174285e-08
 2.899975e-08
 2.926974e-08
 2.694151e-08
 2.447166e-08
 2.267808e-08
 2.145850e-08
 2.019753e-08
 1.791099e-08
 1.337061e-08
 5.455275e-09
 -6.212282e-09
 -2.072545e-08
 -3.607878e-08
 -5.004967e-08
 -6.071485e-08
 -6.576629e-08
 -6.168380e-08
 -4.575660e-08
 -2.148065e-08
 3.776774e-10
 1.056678e-08
 8.720653e-09
 3.856929e-10
 -8.964669e-09
 -1.632095e-08
 -2.069038e-08
 -2.208909e-08
 -2.089194e-08
 -1.756925e-08
 -1.262441e-08
 -6.586480e-09
 0.000000e+00
 0.000000e+00
 -4.290605e-09
 -8.589269e-09
 -1.292216e-08
 -1.735027e-08
 -2.198464e-08
 -2.700145e-08
 -3.265997e-08
 -3.932505e-08
 -4.748832e-08
 -5.775219e-08
 -7.064350e-08
 -8.585244e-08
 -9.998427e-08
 -1.027245e-07
 -7.889251e-08
 -2.817431e-08
 2.188218e-08
 4.639865e-08
 4.814853e-08
 4.099496e-08
 3.363441e-08
 2.878528e-08
 2.651300e-08
 2.608408e-08
 2.644125e-08
 2.607260e-08
 2.281651e-08
 1.419583e-08
 -1.214371e-09
 -2.208114e-08
 -4.451362e-08
 -6.484240e-08
 -8.160005e-08
 -9.321787e-08
 -9.249180e-08
 -6.725119e-08
 -1.935058e-08
 2.290529e-08
 3.566649e-08
 2.413413e-08
 4.775779e-09
 -1.208512e-08
 -2.331790e-08
 -2.912723e-08
 -3.054062e-08
 -2.849822e-08
 -2.374521e-08
 -1.695543e-08
 -8.811902e-09
 0.000000e+00
 0.000000e+00
 -4.573879e-09
 -9.122068e-09
 -1.364474e-08
 -1.819082e-08
 -2.287779e-08
 -2.791231e-08
 -3.362086e-08
 -4.050520e-08
 -4.934537e-08
 -6.137746e-08
 -7.853258e-08
 -1.034146e-07
 -1.370708e-07
 -1.656398e-07
 -1.392098e-07
 -3.051635e-08
 7.227238e-08
 9.535956e-08
 7.478603e-08
 5.188079e-08
 3.743811e-08
 3.042648e-08
 2.846583e-08
 2.985019e-08
 3.328847e-08
 3.703466e-08
 3.778187e-08
 3.024555e-08
 9.764506e-09
 -2.193046e-08
 -5.556059e-08
 -8.331526e-08
 -1.065793e-07
 -1.314521e-07
 -1.501385e-07
 -1.176955e-07
 -1.054295e-08
 8.154072e-08
 8.662538e-08
 4.576434e-08
 5.395741e-09
 -2.132653e-08
 -3.582959e-08
 -4.192475e-08
 -4.241040e-08
 -3.880553e-08
 -3.196252e-08
 -2.264071e-08
 -1.170132e-08
 0.000000e+00
 0.000000e+00
 -4.887247e-09
 -9.688623e-09
 -1.435532e-08
 -1.890511e-08
 -2.344271e-08
 -2.817706e-08
 -3.345021e-08
 -3.980296e-08
 -4.812857e-08
 -6.002904e-08
 -7.865209e-08
 -1.106675e-07
 -1.705181e-07
 -2.839453e-07
 -3.115998e-07
 -2.275816e-08
 2.297627e-07
 1.840292e-07
 9.745270e-08
 5.293153e-08
 3.377762e-08
 2.717319e-08
 2.715493e-08
 3.149563e-08
 3.955865e-08
 5.057798e-08
 6.099304e-08
 6.043190e-08
 3.361945e-08
 -2.013717e-08
 -7.444297e-08
 -1.073419e-07
 -1.284516e-07
 -1.669080e-07
 -2.591231e-07
 -2.723440e-07
 1.816317e-08
 2.551995e-07
 1.795862e-07
 6.003767e-08
 -9.513340e-09
 -4.297289e-08
 -5.650768e-08
 -6.009924e-08
 -5.826293e-08
 -5.234797e-08
 -4.268544e-08
 -2.994116e-08
 -1.532986e-08
 0.000000e+00
 0.000000e+00
 -5.292904e-09
 -1.040125e-08
 -1.519739e-08
 -1.964872e-08
 -2.383210e-08
 -2.793399e-08
 -3.225370e-08
 -3.723427e-08
 -4.356623e-08
 -5.248009e-08
 -6.658385e-08
 -9.251800e-08
 -1.507511e-07
 -3.190497e-07
 -1.384646e-06
 -6.122090e-08
 8.573840e-07
 2.279209e-07
 7.415879e-08
 3.027038e-08
 1.872176e-08
 1.791643e-08
 2.173618e-08
 2.942209e-08
 4.247877e-08
 6.350272e-08
 9.365422e-08
 1.192941e-07
 9.082889e-08
 -1.877267e-08
 -1.216697e-07
 -1.460035e-07
 -1.341750e-07
 -1.482451e-07
 -2.781789e-07
 -1.314792e-06
 1.910240e-08
 9.152169e-07
 2.307780e-07
 1.863966e-08
 -5.995310e-08
 -8.337400e-08
 -8.618461e-08
 -8.318303e-08
 -7.804657e-08
 -6.972859e-08
 -5.660994e-08
 -3.908767e-08
 -1.957474e-08
 0.000000e+00
 0.000000e+00
 -5.893190e-09
 -1.144268e-08
 -1.640295e-08
 -2.067847e-08
 -2.432111e-08
 -2.749526e-08
 -3.043320e-08
 -3.339210e-08
 -3.661352e-08
 -4.027464e-08
 -4.439254e-08
 -4.853492e-08
 -5.064782e-08
 -4.094066e-08
 -7.376400e-08
 1.738394e-05
 -7.115316e-08
 -3.209934e-08
 -3.153484e-08
 -1.812218e-08
 -5.047447e-09
 4.784731e-09
 1.278010e-08
 2.217593e-08
 3.740202e-08
 6.578387e-08
 1.221213e-07
 2.326460e-07
 2.589037e-07
 -2.854089e-08
 -2.754582e-07
 -2.186643e-07
 -1.143139e-07
 -4.253016e-08
 2.415551e-08
 4.355510e-08
 1.753909e-05
 5.823889e-08
 -1.911455e-08
 -1.352288e-07
 -1.607004e-07
 -1.411057e-07
 -1.198932e-07
 -1.076825e-07
 -1.009451e-07
 -9.232297e-08
 -7.536860e-08
 -5.010543e-08
 -2.344449e-08
 0.000000e+00
 0.000000e+00
 -6.855062e-09
 -1.309998e-08
 -1.831872e-08
 -2.236004e-08
 -2.528985e-08
 -2.729677e-08
 -2.858924e-08
 -2.927768e-08
 -2.919827e-08
 -2.755341e-08
 -2.198614e-08
 -5.781177e-09
 4.198085e-08
 1.973759e-07
 8.256119e-07
 -9.490309e-08
 -1.415443e-06
 -3.366412e-07
 -1.457866e-07
 -6.484953e-08
 -2.489177e-08
 -6.256411e-09
 2.557730e-09
 9.501616e-09
 2.032257e-08
 4.256950e-08
 9.683967e-08
 2.613647e-07
 1.324863e-06
 3.666879e-09
 -9.048650e-07
 -2.530948e-07
 -5.709543e-08
 7.092587e-08
 2.887566e-07
 9.954774e-07
 1.990122e-07
 -1.093641e-06
 -3.170063e-07
 -4.029673e-07
 -3.018240e-07
 -1.938593e-07
 -1.428453e-07
 -1.261758e-07
 -1.257848e-07
 -1.244675e-07
 -1.039790e-07
 -6.201906e-08
 -2.226562e-08
 0.000000e+00
 0.000000e+00
 -8.463681e-09
 -1.583117e-08
 -2.144916e-08
 -2.517359e-08
 -2.718508e-08
 -2.779772e-08
 -2.730776e-08
 -2.583804e-08
 -2.312842e-08
 -1.816861e-08
 -8.423036e-09
 1.185604e-08
 5.457656e-08
 1.351427e-07
 1.701739e-07
 -9.476579e-08
 -3.873451e-07
 -3.390994e-07
 -1.797432e-07
 -7.533634e-08
 -2.411761e-08
 -8.077522e-09
 -6.235947e-09
 -6.885964e-09
 -6.594928e-09
 -6.135227e-09
 -8.781931e-09
 -2.459586e-08
 2.708684e-09
 -1.745550e-05
 1.001939e-08
 -1.795272e-09
 4.753642e-08
 1.168667e-07
 2.371482e-07
 3.464134e-07
 2.648661e-07
 1.042181e-06
 -2.540331e-07
 -1.059627e-06
 -3.707531e-07
 -1.873979e-07
 -1.331482e-07
 -1.284141e-07
 -1.506218e-07
 -1.784358e-07
 -1.603233e-07
 -7.000171e-08
 4.162235e-09
 0.000000e+00
 0.000000e+00
 -1.125617e-08
 -2.040402e-08
 -2.652609e-08
 -2.972091e-08
 -3.047642e-08
 -2.937359e-08
 -2.694598e-08
 -2.352335e-08
 -1.907844e-08
 -1.308043e-08
 -4.368261e-09
 8.622199e-09
 2.551618e-08
 3.333114e-08
 -1.208462e-08
 -1.479434e-07
 -2.866623e-07
 -2.901976e-07
 -1.583882e-07
 -2.873255e-08
 1.211130e-08
 2.263538e-09
 -1.394198e-08
 -2.483676e-08
 -3.399354e-08
 -5.236430e-08
 -1.051866e-07
 -2.708964e-07
 -9.126801e-07
 -1.645321e-09
 1.323702e-06
 2.719554e-07
 1.300205e-07
 1.089559e-07
 1.173875e-07
 8.990741e-08
 -2.648356e-08
 -1.055803e-07
 -1.759169e-05
 -1.072347e-07
 -1.087342e-07
 -8.066795e-08
 -8.084094e-08
 -1.042676e-07
 -1.619582e-07
 -2.791540e-07
 -3.187282e-07
 -5.624647e-08
 1.426449e-07
 0.000000e+00
 0.000000e+00
 -1.641011e-08
 -2.818097e-08
 -3.457992e-08
 -3.672000e-08
 -3.561971e-08
 -3.223984e-08
 -2.751942e-08
 -2.214751e-08
 -1.647159e-08
 -1.059949e-08
 -4.726343e-09
 -2.271609e-11
 -9.081887e-10
 -1.913922e-08
 -7.495951e-08
 -1.853385e-07
 -3.513333e-07
 -4.067638e-07
 -1.218754e-07
 1.356296e-07
 9.502008e-08
 1.227643e-08
 -2.886867e-08
 -4.544109e-08
 -5.398536e-08
 -7.028312e-08
 -1.155297e-07
 -2.124293e-07
 -2.767571e-07
 -4.138398e-08
 2.412321e-07
 2.198145e-07
 1.200174e-07
 7.166325e-08
 3.066437e-08
 -5.389783e-08
 -2.682084e-07
 -9.549733e-07
 -6.369704e-08
 1.260796e-06
 2.074789e-07
 4.958692e-08
 -7.392013e-09
 -4.869081e-08
 -1.145728e-07
 -2.891577e-07
 -1.364443e-06
 -6.296735e-08
 7.985510e-07
 0.000000e+00
 0.000000e+00
 -2.711603e-08
 -4.158539e-08
 -4.680344e-08
 -4.696607e-08
 -4.304751e-08
 -3.639847e-08
 -2.868218e-08
 -2.103093e-08
 -1.406245e-08
 -8.245559e-09
 -4.384890e-09
 -4.321655e-09
 -1.188140e-08
 -3.368686e-08
 -7.944086e-08
 -1.668784e-07
 -3.641229e-07
 -1.450096e-06
 -1.387590e-07
 7.713113e-07
 1.347336e-07
 -2.344420e-08
 -6.725723e-08
 -7.390056e-08
 -6.726370e-08
 -6.067967e-08
 -6.898262e-08
 -9.912641e-08
 -1.124976e-07
 -4.751028e-08
 4.585143e-08
 7.657149e-08
 5.760958e-08
 2.643464e-08
 -1.604178e-08
 -8.845496e-08
 -2.084523e-07
 -2.848121e-07
 -5.031600e-08
 2.350890e-07
 2.134401e-07
 1.087046e-07
 5.537935e-08
 2.665254e-08
 1.192310e-08
 1.684660e-08
 -1.576326e-08
 1.744282e-05
 -1.689983e-08
 0.000000e+00
 0.000000e+00
 -5.464629e-08
 -6.357257e-08
 -6.337934e-08
 -6.155235e-08
 -5.324933e-08
 -4.150369e-08
 -2.968811e-08
 -1.920488e-08
 -1.055137e-08
 -4.099353e-09
 -5.771661e-10
 -1.493346e-09
 -9.091989e-09
 -2.493799e-08
 -4.717956e-08
 -6.858428e-08
 -7.414937e-08
 -1.186087e-07
 1.732511e-05
 -1.499110e-07
 -1.321365e-07
 -1.463266e-07
 -1.366036e-07
 -1.143852e-07
 -8.116481e-08
 -3.624310e-08
 8.176597e-09
 7.939644e-09
 -5.453865e-08
 -9.234880e-08
 -5.862615e-08
 -1.572181e-08
 -1.408216e-09
 -1.002575e-08
 -3.340201e-08
 -6.954348e-08
 -1.064114e-07
 -9.908465e-08
 -6.619588e-09
 1.004346e-07
 1.338675e-07
 1.174241e-07
 9.681582e-08
 9.014300e-08
 1.231813e-07
 2.777369e-07
 9.204773e-07
 2.964588e-08
 -1.234208e-06
 0.000000e+00
 0.000000e+00
 -1.517679e-07
 -8.151416e-08
 -8.126334e-08
 -8.475436e-08
 -6.653633e-08
 -4.630820e-08
 -2.923139e-08
 -1.553590e-08
 -4.896338e-09
 2.837149e-09
 7.504387e-09
 8.079550e-09
 2.540027e-09
 -8.819992e-09
 -1.486398e-08
 1.710253e-08
 1.711614e-07
 8.041696e-07
 -1.272647e-07
 -1.484960e-06
 -4.509064e-07
 -2.893292e-07
 -2.170467e-07
 -1.653361e-07
 -1.081151e-07
 -1.935142e-08
 1.315766e-07
 2.055274e-07
 -3.145915e-08
 -2.362000e-07
 -1.613705e-07
 -7.102544e-08
 -3.857344e-08
 -3.329933e-08
 -3.680974e-08
 -4.303745e-08
 -4.434259e-08
 -2.623105e-08
 1.771432e-08
 6.856922e-08
 1.042293e-07
 1.228753e-07
 1.263807e-07
 1.207754e-07
 1.394764e-07
 2.222345e-07
 2.881423e-07
 7.526269e-08
 -1.466424e-07
 0.000000e+00
 0.000000e+00
 -8.581984e-07
 1.723160e-07
 -1.569077e-07
 -1.262358e-07
 -7.919976e-08
 -4.738814e-08
 -2.538861e-08
 -8.847912e-09
 3.632136e-09
 1.269732e-08
 1.941533e-08
 2.396365e-08
 2.178594e-08
 5.454166e-09
 -1.468314e-08
 5.109214e-09
 1.067732e-07
 1.897286e-07
 -6.774503e-08
 -4.394773e-07
 -4.875287e-07
 -3.732612e-07
 -2.801516e-07
 -2.212797e-07
 -1.654953e-07
 -6.500412e-08
 1.625983e-07
 1.297036e-06
 4.060416e-08
 -8.300485e-07
 -1.905310e-07
 -6.376064e-08
 -5.223786e-08
 -5.007721e-08
 -3.699385e-08
 -1.961787e-08
 -2.687093e-09
 1.486216e-08
 3.450021e-08
 5.719910e-08
 9.132669e-08
 1.429741e-07
 1.714630e-07
 1.293543e-07
 8.262999e-08
 9.700969e-08
 1.089408e-07
 5.079260e-08
 -1.104276e-08
 0.000000e+00
 0.000000e+00
 1.452546e-05
 -1.099805e-06
 -3.937358e-07
 -1.564039e-07
 -7.411695e-08
 -3.941996e-08
 -1.661191e-08
 1.809261e-09
 1.571386e-08
 2.486449e-08
 3.262801e-08
 4.535195e-08
 5.806955e-08
 3.099779e-08
 -5.378465e-08
 -1.006022e-07
 -3.468994e-08
 8.955681e-08
 5.434627e-08
 -3.063316e-07
 -5.461259e-07
 -4.308700e-07
 -2.996271e-07
 -2.726381e-07
 -2.663194e-07
 -2.097075e-07
 -1.294005e-07
 5.330082e-09
 -1.735290e-05
 1.735626e-07
 1.283468e-07
 3.037355e-08
 -6.993266e-08
 -8.143014e-08
 -4.038371e-08
 5.444023e-09
 3.827621e-08
 5.337093e-08
 4.978323e-08
 3.605981e-08
 5.043135e-08
 1.796938e-07
 3.170060e-07
 1.430543e-07
 -6.746785e-08
 -2.695468e-08
 3.264035e-08
 3.393297e-08
 1.333713e-08
 0.000000e+00
 0.000000e+00
 -2.682679e-06
 -1.933792e-06
 -2.793016e-07
 -5.066365e-08
 -3.366096e-08
 -2.331295e-08
 -4.430208e-09
 1.702890e-08
 3.324014e-08
 3.921485e-08
 3.998608e-08
 5.821301e-08
 1.343548e-07
 1.437983e-07
 -1.356512e-07
 -3.502996e-07
 -2.338232e-07
 1.404480e-08
 1.092212e-06
 -2.414744e-07
 -1.139312e-06
 -4.121358e-07
 -1.858073e-07
 -3.079977e-07
 -4.404129e-07
 -3.790915e-07
 -3.915783e-07
 -8.741877e-07
 1.994370e-07