<VTKFile type="UnstructuredGrid"  version="0.1"   >
<UnstructuredGrid>  
<Piece  NumberOfPoints="     2601"  NumberOfCells="     5000">  
<Points>  
<DataArray  type="Float64"  NumberOfComponents="3"  format="ascii">  
 0.000000 0.000000 0.000000 
 0.020000 0.000000 0.000000 
 0.040000 0.000000 0.000000 
 0.060000 0.000000 0.000000 
 0.080000 0.000000 0.000000 
 0.100000 0.000000 0.000000 
 0.120000 0.000000 0.000000 
 0.140000 0.000000 0.000000 
 0.160000 0.000000 0.000000 
 0.180000 0.000000 0.000000 
 0.200000 0.000000 0.000000 
 0.220000 0.000000 0.000000 
 0.240000 0.000000 0.000000 
 0.260000 0.000000 0.000000 
 0.280000 0.000000 0.000000 
 0.300000 0.000000 0.000000 
 0.320000 0.000000 0.000000 
 0.340000 0.000000 0.000000 
 0.360000 0.000000 0.000000 
 0.380000 0.000000 0.000000 
 0.400000 0.000000 0.000000 
 0.420000 0.000000 0.000000 
 0.440000 0.000000 0.000000 
 0.460000 0.000000 0.000000 
 0.480000 0.000000 0.000000 
 0.500000 0.000000 0.000000 
 0.520000 0.000000 0.000000 
 0.540000 0.000000 0.000000 
 0.560000 0.000000 0.000000 
 0.580000 0.000000 0.000000 
 0.600000 0.000000 0.000000 
 0.620000 0.000000 0.000000 
 0.640000 0.000000 0.000000 
 0.660000 0.000000 0.000000 
 0.680000 0.000000 0.000000 
 0.700000 0.000000 0.000000 
 0.720000 0.000000 0.000000 
 0.740000 0.000000 0.000000 
 0.760000 0.000000 0.000000 
 0.780000 0.000000 0.000000 
 0.800000 0.000000 0.000000 
 0.820000 0.000000 0.000000 
 0.840000 0.000000 0.000000 
 0.860000 0.000000 0.000000 
 0.880000 0.000000 0.000000 
 0.900000 0.000000 0.000000 
 0.920000 0.000000 0.000000 
 0.940000 0.000000 0.000000 
 0.960000 0.000000 0.000000 
 0.980000 0.000000 0.000000 
 1.000000 0.000000 0.000000 
 0.000000 0.020000 0.000000 
 0.020000 0.020000 0.000000 
 0.040000 0.020000 0.000000 
 0.060000 0.020000 0.000000 
 0.080000 0.020000 0.000000 
 0.100000 0.020000 0.000000 
 0.120000 0.020000 0.000000 
 0.140000 0.020000 0.000000 
 0.160000 0.020000 0.000000 
 0.180000 0.020000 0.000000 
 0.200000 0.020000 0.000000 
 0.220000 0.020000 0.000000 
 0.240000 0.020000 0.000000 
 0.260000 0.020000 0.000000 
 0.280000 0.020000 0.000000 
 0.300000 0.020000 0.000000 
 0.320000 0.020000 0.000000 
 0.340000 0.020000 0.000000 
 0.360000 0.020000 0.000000 
 0.380000 0.020000 0.000000 
 0.400000 0.020000 0.000000 
 0.420000 0.020000 0.000000 
 0.440000 0.020000 0.000000 
 0.460000 0.020000 0.000000 
 0.480000 0.020000 0.000000 
 0.500000 0.020000 0.000000 
 0.520000 0.020000 0.000000 
 0.540000 0.020000 0.000000 
 0.560000 0.020000 0.000000 
 0.580000 0.020000 0.000000 
 0.600000 0.020000 0.000000 
 0.620000 0.020000 0.000000 
 0.640000 0.020000 0.000000 
 0.660000 0.020000 0.000000 
 0.680000 0.020000 0.000000 
 0.700000 0.020000 0.000000 
 0.720000 0.020000 0.000000 
 0.740000 0.020000 0.000000 
 0.760000 0.020000 0.000000 
 0.780000 0.020000 0.000000 
 0.800000 0.020000 0.000000 
 0.820000 0.020000 0.000000 
 0.840000 0.020000 0.000000 
 0.860000 0.020000 0.000000 
 0.880000 0.020000 0.000000 
 0.900000 0.020000 0.000000 
 0.920000 0.020000 0.000000 
 0.940000 0.020000 0.000000 
 0.960000 0.020000 0.000000 
 0.980000 0.020000 0.000000 
 1.000000 0.020000 0.000000 
 0.000000 0.040000 0.000000 
 0.020000 0.040000 0.000000 
 0.040000 0.040000 0.000000 
 0.060000 0.040000 0.000000 
 0.080000 0.040000 0.000000 
 0.100000 0.040000 0.000000 
 0.120000 0.040000 0.000000 
 0.140000 0.040000 0.000000 
 0.160000 0.040000 0.000000 
 0.180000 0.040000 0.000000 
 0.200000 0.040000 0.000000 
 0.220000 0.040000 0.000000 
 0.240000 0.040000 0.000000 
 0.260000 0.040000 0.000000 
 0.280000 0.040000 0.000000 
 0.300000 0.040000 0.000000 
 0.320000 0.040000 0.000000 
 0.340000 0.040000 0.000000 
 0.360000 0.040000 0.000000 
 0.380000 0.040000 0.000000 
 0.400000 0.040000 0.000000 
 0.420000 0.040000 0.000000 
 0.440000 0.040000 0.000000 
 0.460000 0.040000 0.000000 
 0.480000 0.040000 0.000000 
 0.500000 0.040000 0.000000 
 0.520000 0.040000 0.000000 
 0.540000 0.040000 0.000000 
 0.560000 0.040000 0.000000 
 0.580000 0.040000 0.000000 
 0.600000 0.040000 0.000000 
 0.620000 0.040000 0.000000 
 0.640000 0.040000 0.000000 
 0.660000 0.040000 0.000000 
 0.680000 0.040000 0.000000 
 0.700000 0.040000 0.000000 
 0.720000 0.040000 0.000000 
 0.740000 0.040000 0.000000 
 0.760000 0.040000 0.000000 
 0.780000 0.040000 0.000000 
 0.800000 0.040000 0.000000 
 0.820000 0.040000 0.000000 
 0.840000 0.040000 0.000000 
 0.860000 0.040000 0.000000 
 0.880000 0.040000 0.000000 
 0.900000 0.040000 0.000000 
 0.920000 0.040000 0.000000 
 0.940000 0.040000 0.000000 
 0.960000 0.040000 0.000000 
 0.980000 0.040000 0.000000 
 1.000000 0.040000 0.000000 
 0.000000 0.060000 0.000000 
 0.020000 0.060000 0.000000 
 0.040000 0.060000 0.000000 
 0.060000 0.060000 0.000000 
 0.080000 0.060000 0.000000 
 0.100000 0.060000 0.000000 
 0.120000 0.060000 0.000000 
 0.140000 0.060000 0.000000 
 0.160000 0.060000 0.000000 
 0.180000 0.060000 0.000000 
 0.200000 0.060000 0.000000 
 0.220000 0.060000 0.000000 
 0.240000 0.060000 0.000000 
 0.260000 0.060000 0.000000 
 0.280000 0.060000 0.000000 
 0.300000 0.060000 0.000000 
 0.320000 0.060000 0.000000 
 0.340000 0.060000 0.000000 
 0.360000 0.060000 0.000000 
 0.380000 0.060000 0.000000 
 0.400000 0.060000 0.000000 
 0.420000 0.060000 0.000000 
 0.440000 0.060000 0.000000 
 0.460000 0.060000 0.000000 
 0.480000 0.060000 0.000000 
 0.500000 0.060000 0.000000 
 0.520000 0.060000 0.000000 
 0.540000 0.060000 0.000000 
 0.560000 0.060000 0.000000 
 0.580000 0.060000 0.000000 
 0.600000 0.060000 0.000000 
 0.620000 0.060000 0.000000 
 0.640000 0.060000 0.000000 
 0.660000 0.060000 0.000000 
 0.680000 0.060000 0.000000 
 0.700000 0.060000 0.000000 
 0.720000 0.060000 0.000000 
 0.740000 0.060000 0.000000 
 0.760000 0.060000 0.000000 
 0.780000 0.060000 0.000000 
 0.800000 0.060000 0.000000 
 0.820000 0.060000 0.000000 
 0.840000 0.060000 0.000000 
 0.860000 0.060000 0.000000 
 0.880000 0.060000 0.000000 
 0.900000 0.060000 0.000000 
 0.920000 0.060000 0.000000 
 0.940000 0.060000 0.000000 
 0.960000 0.060000 0.000000 
 0.980000 0.060000 0.000000 
 1.000000 0.060000 0.000000 
 0.000000 0.080000 0.000000 
 0.020000 0.080000 0.000000 
 0.040000 0.080000 0.000000 
 0.060000 0.080000 0.000000 
 0.080000 0.080000 0.000000 
 0.100000 0.080000 0.000000 
 0.120000 0.080000 0.000000 
 0.140000 0.080000 0.000000 
 0.160000 0.080000 0.000000 
 0.180000 0.080000 0.000000 
 0.200000 0.080000 0.000000 
 0.220000 0.080000 0.000000 
 0.240000 0.080000 0.000000 
 0.260000 0.080000 0.000000 
 0.280000 0.080000 0.000000 
 0.300000 0.080000 0.000000 
 0.320000 0.080000 0.000000 
 0.340000 0.080000 0.000000 
 0.360000 0.080000 0.000000 
 0.380000 0.080000 0.000000 
 0.400000 0.080000 0.000000 
 0.420000 0.080000 0.000000 
 0.440000 0.080000 0.000000 
 0.460000 0.080000 0.000000 
 0.480000 0.080000 0.000000 
 0.500000 0.080000 0.000000 
 0.520000 0.080000 0.000000 
 0.540000 0.080000 0.000000 
 0.560000 0.080000 0.000000 
 0.580000 0.080000 0.000000 
 0.600000 0.080000 0.000000 
 0.620000 0.080000 0.000000 
 0.640000 0.080000 0.000000 
 0.660000 0.080000 0.000000 
 0.680000 0.080000 0.000000 
 0.700000 0.080000 0.000000 
 0.720000 0.080000 0.000000 
 0.740000 0.080000 0.000000 
 0.760000 0.080000 0.000000 
 0.780000 0.080000 0.000000 
 0.800000 0.080000 0.000000 
 0.820000 0.080000 0.000000 
 0.840000 0.080000 0.000000 
 0.860000 0.080000 0.000000 
 0.880000 0.080000 0.000000 
 0.900000 0.080000 0.000000 
 0.920000 0.080000 0.000000 
 0.940000 0.080000 0.000000 
 0.960000 0.080000 0.000000 
 0.980000 0.080000 0.000000 
 1.000000 0.080000 0.000000 
 0.000000 0.100000 0.000000 
 0.020000 0.100000 0.000000 
 0.040000 0.100000 0.000000 
 0.060000 0.100000 0.000000 
 0.080000 0.100000 0.000000 
 0.100000 0.100000 0.000000 
 0.120000 0.100000 0.000000 
 0.140000 0.100000 0.000000 
 0.160000 0.100000 0.000000 
 0.180000 0.100000 0.000000 
 0.200000 0.100000 0.000000 
 0.220000 0.100000 0.000000 
 0.240000 0.100000 0.000000 
 0.260000 0.100000 0.000000 
 0.280000 0.100000 0.000000 
 0.300000 0.100000 0.000000 
 0.320000 0.100000 0.000000 
 0.340000 0.100000 0.000000 
 0.360000 0.100000 0.000000 
 0.380000 0.100000 0.000000 
 0.400000 0.100000 0.000000 
 0.420000 0.100000 0.000000 
 0.440000 0.100000 0.000000 
 0.460000 0.100000 0.000000 
 0.480000 0.100000 0.000000 
 0.500000 0.100000 0.000000 
 0.520000 0.100000 0.000000 
 0.540000 0.100000 0.000000 
 0.560000 0.100000 0.000000 
 0.580000 0.100000 0.000000 
 0.600000 0.100000 0.000000 
 0.620000 0.100000 0.000000 
 0.640000 0.100000 0.000000 
 0.660000 0.100000 0.000000 
 0.680000 0.100000 0.000000 
 0.700000 0.100000 0.000000 
 0.720000 0.100000 0.000000 
 0.740000 0.100000 0.000000 
 0.760000 0.100000 0.000000 
 0.780000 0.100000 0.000000 
 0.800000 0.100000 0.000000 
 0.820000 0.100000 0.000000 
 0.840000 0.100000 0.000000 
 0.860000 0.100000 0.000000 
 0.880000 0.100000 0.000000 
 0.900000 0.100000 0.000000 
 0.920000 0.100000 0.000000 
 0.940000 0.100000 0.000000 
 0.960000 0.100000 0.000000 
 0.980000 0.100000 0.000000 
 1.000000 0.100000 0.000000 
 0.000000 0.120000 0.000000 
 0.020000 0.120000 0.000000 
 0.040000 0.120000 0.000000 
 0.060000 0.120000 0.000000 
 0.080000 0.120000 0.000000 
 0.100000 0.120000 0.000000 
 0.120000 0.120000 0.000000 
 0.140000 0.120000 0.000000 
 0.160000 0.120000 0.000000 
 0.180000 0.120000 0.000000 
 0.200000 0.120000 0.000000 
 0.220000 0.120000 0.000000 
 0.240000 0.120000 0.000000 
 0.260000 0.120000 0.000000 
 0.280000 0.120000 0.000000 
 0.300000 0.120000 0.000000 
 0.320000 0.120000 0.000000 
 0.340000 0.120000 0.000000 
 0.360000 0.120000 0.000000 
 0.380000 0.120000 0.000000 
 0.400000 0.120000 0.000000 
 0.420000 0.120000 0.000000 
 0.440000 0.120000 0.000000 
 0.460000 0.120000 0.000000 
 0.480000 0.120000 0.000000 
 0.500000 0.120000 0.000000 
 0.520000 0.120000 0.000000 
 0.540000 0.120000 0.000000 
 0.560000 0.120000 0.000000 
 0.580000 0.120000 0.000000 
 0.600000 0.120000 0.000000 
[...]
<PointData  Scalars="U"> 
<DataArray  type="Float64"  Name="U"  format="ascii"> 
 0.000000e+00
 0.000000e+00
 0.000000e+00
 0.000000e+00
 0.000000e+00
 0.000000e+00
 0.000000e+00
 0.000000e+00
 0.000000e+00
 0.000000e+00
 0.000000e+00
 0.000000e+00
 0.000000e+00
 0.000000e+00
 0.000000e+00
 0.000000e+00
 0.000000e+00
 0.000000e+00
 0.000000e+00
 0.000000e+00
 0.000000e+00
 0.000000e+00
 0.000000e+00
 0.000000e+00
 0.000000e+00
 0.000000e+00
 0.000000e+00
 0.000000e+00
 0.000000e+00
 0.000000e+00
 0.000000e+00
 0.000000e+00
 0.000000e+00
 0.000000e+00
 0.000000e+00
 0.000000e+00
 0.000000e+00
 0.000000e+00
 0.000000e+00
 0.000000e+00
 0.000000e+00
 0.000000e+00
 0.000000e+00
 0.000000e+00
 0.000000e+00
 0.000000e+00
 0.000000e+00
 0.000000e+00
 0.000000e+00
 0.000000e+00
 0.000000e+00
 0.000000e+00
 1.636141e-07
 -2.746186e-08
 -2.117454e-07
 -1.339409e-07
 -4.150446e-08
 -1.602897e-09
 9.804304e-09
 5.127685e-09
 -1.117413e-08
 -3.197508e-08
 -4.579419e-08
 -5.789970e-08
 -1.136855e-07
 -1.131845e-07
 1.444645e-07
 3.238868e-07
 2.167971e-07
 1.091995e-07
 7.597785e-08
 7.596232e-08
 4.645436e-08
 -4.571071e-08
 -1.215724e-07
 -1.158968e-07
 -6.835188e-08
 -2.148500e-08
 1.501617e-08
 4.904536e-08
 9.244917e-08
 1.362944e-07
 7.006107e-08
 -1.020506e-06
 4.928646e-08
 8.079146e-07
 3.170787e-07
 1.752396e-05
 -3.293278e-07
 -4.587068e-07
 -4.458915e-07
 -9.467005e-08
 1.870382e-07
 1.158141e-07
 -2.494241e-09
 -5.472896e-08
 -5.247394e-08
 -1.708835e-08
 1.790273e-08
 2.840863e-08
 1.698492e-08
 0.000000e+00
 0.000000e+00
 1.257720e-06
 1.791779e-08
 -8.527695e-07
 -1.961365e-07
 -2.850272e-08
 2.223330e-08
 3.431223e-08
 2.250469e-08
 -1.629798e-08
 -7.340582e-08
 -1.017071e-07
 -7.615030e-08
 -1.137671e-07
 -1.058154e-06
 2.929101e-07
 1.099661e-06
 3.411365e-07
 1.393913e-07
 1.141884e-07
 1.827647e-07
 1.842703e-07
 -1.117653e-07
 -3.509511e-07
 -2.694480e-07
 -1.294952e-07
 -3.008199e-08
 3.346599e-08
 8.629999e-08
 1.723798e-07
 3.318051e-07
 5.762469e-07
 6.346100e-07
 1.766446e-05
 -1.123032e-06
 6.871653e-07
 5.551287e-07
 -1.546222e-06
 -8.844605e-07
 -1.822527e-06
 -1.964217e-07
 9.168931e-07
 1.850364e-07
 -7.893346e-08
 -1.635278e-07
 -1.416620e-07
 -3.203387e-08
 6.631531e-08
 7.954610e-08
 4.412220e-08
 0.000000e+00
 0.000000e+00
 4.506056e-08
 -1.739118e-05
 8.286993e-08
 5.890457e-08
 7.288341e-08
 7.668202e-08
 7.992815e-08
 6.815604e-08
 6.343603e-09
 -1.443416e-07
 -2.402047e-07
 -5.770619e-08
 2.009988e-07
 4.747451e-07
 1.810900e-05
 3.262183e-07
 5.301351e-08
 2.797446e-08
 7.204303e-08
 1.899238e-07
 1.203440e-06
 -1.516757e-07
 -1.074026e-06
 -3.984913e-07
 -1.456712e-07
 1.817611e-10
 6.669668e-08
 8.985432e-08
 1.728559e-07
 4.387619e-07
 1.006004e-06
 2.967134e-06
 8.174993e-07
 -1.812069e-06
 1.696559e-05
 -4.688941e-07
 -6.347885e-07
 -6.803425e-07
 -1.581341e-06
 1.721564e-05
 5.504275e-07
 -1.365729e-07
 -3.030466e-07
 -3.670530e-07
 -3.430305e-07
 -3.010522e-08
 2.270854e-07
 1.750898e-07
 7.320537e-08
 0.000000e+00
 0.000000e+00
 -7.609186e-07
 1.274857e-07
 1.438985e-06
 3.590495e-07
 1.790471e-07
 1.279981e-07
 1.366120e-07
 1.627776e-07
 1.222782e-07
 -1.041833e-07
 -1.245304e-06
 -2.078477e-08
 1.788479e-08
 1.390439e-06
 2.228752e-06
 -8.758583e-07
 -7.150132e-07
 -5.752094e-08
 -8.530295e-09
 -1.180000e-07
 -1.857752e-07
 -1.769785e-05
 -2.935999e-07
 -2.892626e-07
 -8.214706e-08
 1.151760e-07
 1.573333e-07
 3.919810e-08
 -2.629527e-08
 3.010111e-07
 8.062029e-07
 1.365936e-06
 -1.500043e-05
 1.029422e-06
 -1.183834e-06
 -1.705832e-06
 -5.553869e-07
 -1.572220e-07
 8.485330e-07
 1.736609e-05
 -1.851828e-06
 -9.226681e-07
 -5.899191e-07
 -4.698577e-07
 -1.412695e-06
 -5.579643e-08
 8.677062e-07
 2.339670e-07
 6.843661e-08
 0.000000e+00
 0.000000e+00
 -8.396596e-08
 1.518225e-07
 4.175916e-07
 3.454933e-07
 1.845941e-07
 1.217612e-07
 1.661468e-07
 3.182385e-07
 4.219948e-07
 2.557807e-07
 1.078807e-07
 1.773602e-05
 3.787177e-07
 1.774049e-05
 -1.060726e-06
 -1.755114e-05
 7.262961e-07
 1.796323e-07
 6.197559e-08
 -4.021273e-07
 -1.238088e-06
 -2.829807e-07
 8.078851e-07
 -3.591843e-07
 -6.416618e-09
 4.192501e-07
 4.104397e-07
 1.113372e-07
 -1.194948e-06
 -1.049930e-07
 7.482718e-07
 -2.840057e-08
 3.102249e-06
 -1.556238e-05
 -1.062049e-06
 7.581257e-07
 -2.521091e-07
 -5.501530e-07
 2.239863e-06
 1.182643e-06
 -2.633842e-06
 -1.904947e-06
 -6.338328e-07
 -7.218945e-08
 -1.648358e-08
 1.742278e-05
 -4.091997e-08
 -4.319812e-09
 -7.681835e-09
 0.000000e+00
 0.000000e+00
 9.969482e-08
 2.308002e-07
 3.243759e-07
 2.584577e-07
 8.868748e-08
 6.419603e-09
 9.024378e-08
 3.583194e-07
 1.578681e-06
 5.897361e-07
 5.982463e-07
 6.472062e-07
 6.416418e-08
 -1.005825e-08
 -1.961256e-06
 1.728694e-05
 9.513666e-07
 4.632882e-08
 1.089837e-06
 -3.998764e-07
 -1.328787e-06
 5.859697e-07
 -3.498012e-07
 -2.132227e-06
 2.194708e-08
 1.345185e-06
 8.303315e-07
 6.362264e-07
 3.504333e-08
 1.673090e-05
 -9.224014e-07
 -7.673730e-07
 -7.477153e-07
 -3.422730e-05
 1.981789e-06
 5.212604e-07
 -1.758513e-05
 -3.035279e-07
 1.809137e-07
 -1.708916e-05
 -1.755654e-05
 -1.508391e-06
 -3.057129e-07
 8.820010e-07
 9.838975e-07
 -3.986683e-08
 -1.370990e-06
 -2.840869e-07
 -8.999600e-08
 0.000000e+00
 0.000000e+00
 2.314597e-07
 3.288981e-07
 4.317541e-07
 3.068902e-07
 -1.265731e-07
 -2.919883e-07
 -1.305925e-07
 5.569082e-08
 2.040895e-07
 -1.701932e-05
 1.073872e-06
 1.317664e-06
 8.526059e-07
 3.485610e-07
 6.937511e-07
 9.306948e-07
 -2.432512e-06
 -1.206731e-06
 1.810615e-07
 -1.799866e-05
 -7.768650e-07
 -5.765388e-07
 -1.775444e-05
 -1.394037e-07
 1.761419e-05
 1.568678e-06
 8.579934e-07
 2.341320e-06
 1.878917e-06
 -2.184497e-06
 -3.273582e-06
 -1.549656e-06
 -2.098372e-06
 6.493125e-07
 3.561475e-06
 1.117175e-06
 -2.432632e-07
 -1.083943e-06
 -8.284459e-07
 4.948114e-07
 3.065260e-06
 1.761141e-06
 1.705885e-05
 7.390573e-08
 1.785507e-07
 -9.668629e-08
 -3.411669e-07
 -2.507419e-07
 -9.444588e-08
 0.000000e+00
 0.000000e+00
 1.003318e-06
 3.374163e-07
 1.058185e-06
 1.401679e-06
 -6.947154e-07
 -1.000182e-06
 -3.202727e-07
 -1.111012e-07
 -6.843634e-07
 -8.112509e-07
 2.228588e-06
 3.384364e-06
 1.296763e-06
 8.866102e-08
 2.383763e-07
 -4.935986e-08
 -1.677654e-05
 1.680401e-05
 -1.128176e-06
 -8.543216e-07
 -3.727055e-07
 -1.262310e-06
 -1.489003e-07
 1.745016e-06
 -2.014824e-07
 -1.173082e-06
 -1.718772e-05
 3.077686e-07
 -3.490821e-05
 -1.789782e-05
 -9.813342e-07
 -9.857941e-07
 -1.507843e-06
 1.636628e-06
 2.770295e-06
 -2.753757e-07
 -1.824650e-05
 5.265622e-08
 1.759551e-05
 3.552862e-07
 9.979239e-07
 -1.574187e-05
 5.917518e-07
 -9.391333e-07
 -1.795526e-07
 -2.915774e-07
 -2.241730e-07
 -1.041095e-07
 -3.444242e-08
 0.000000e+00
 0.000000e+00
 -2.470588e-06
 -1.765569e-05
 1.283515e-06
 -1.730053e-05
 -1.703441e-05
 4.292610e-07
 -8.678612e-07
 1.738623e-07
 8.393389e-07
 -7.151407e-07
 1.808529e-05
 1.559465e-06
 -1.626774e-05
 2.144691e-06
 3.810390e-07
 -1.446119e-06
 2.515252e-07
 -1.710322e-05
 -2.061194e-06
 -1.836648e-05
 -4.653566e-07
 -4.103532e-07
 -2.155558e-07
 -2.358821e-07
 -1.841212e-06
 -1.436031e-06
 1.433614e-06
 -2.668901e-07
 -1.262465e-06
 2.340197e-06
 1.360324e-07
 -1.480526e-07
 6.009139e-07
 1.761137e-05
 -1.742400e-05
 -1.813356e-05
 2.352824e-07
 2.426459e-06
 7.901203e-07
 -5.722865e-07
 1.495910e-08
 8.335927e-07
 1.619295e-06
 1.177826e-06
 -1.284151e-07
 -8.571298e-07
 -1.103496e-07
 1.099125e-07
 6.155067e-08
 0.000000e+00
 0.000000e+00
 -6.649003e-07
 3.451990e-05
 -1.691340e-06
 -2.397860e-06
 2.305477e-06
 3.183572e-06
 1.003581e-06
 1.792476e-05
 6.710930e-07
 1.169234e-06
 1.718475e-05
 -2.233868e-06
 2.736838e-07
 3.140910e-06
 -1.661981e-05
 5.053396e-07
 -9.519277e-07
 -1.284954e-06
 -5.452662e-07
 -6.493926e-07
 8.376167e-07
 3.991242e-08
 -7.649907e-08
 -5.138628e-07
 -9.882990e-07
 1.539780e-05
 -6.116109e-07
 -1.701786e-05
 1.921949e-07
 1.596137e-06
 5.471165e-07
 1.714309e-05
 5.707134e-07
 -1.047066e-06
 -2.171671e-06
 9.001572e-07
 3.991387e-07
 7.460445e-07
 1.484620e-06
 9.112129e-07
 1.856570e-06
 6.446833e-07
 -4.226749e-07
 -1.133093e-06
 -1.744096e-05
 -1.718951e-07
 1.777055e-07
 7.019954e-07
 8.281184e-08
 0.000000e+00
 0.000000e+00
 2.907906e-06
 1.195462e-06
 -3.556894e-06
 1.470597e-05
 1.760562e-05
 2.013794e-06
 1.792977e-06
 -6.790820e-07
 3.862354e-07
 1.697283e-06
 -1.278125e-06
 -3.483377e-06
 -6.882064e-07
 2.818589e-07
 -1.659526e-05
 1.895300e-06
 -1.710696e-05
 -1.776368e-07
 -8.369310e-07
 -9.281016e-07
 -2.821141e-07
 2.184057e-07
 1.151261e-06
 -1.282503e-06
 -7.056831e-07
 -3.264062e-07
 1.501871e-05
 -3.652690e-07
 1.159170e-06
 -7.640521e-07
 -1.653849e-05
 1.000514e-06
 -8.845253e-07
 -2.992062e-07
 -2.452069e-07
 3.190796e-07
 4.517669e-07
 1.653779e-05
 5.169751e-08
 1.304142e-06
 1.075298e-06
 -1.668533e-05
 3.555027e-07
 -5.584677e-07
 1.780221e-05
 2.610010e-06
 1.770683e-05
 -8.149883e-07
 -1.732179e-07
 0.000000e+00
 0.000000e+00
 4.386085e-07
 -1.690513e-05
 -1.536961e-05
 7.832846e-07
 1.580491e-05
 3.895410e-07
 1.775045e-06
 -4.250204e-07
 1.675284e-05
 -1.637946e-05
 -1.254549e-06
 -1.361515e-06
 1.720877e-05
 -2.100063e-06
 1.411665e-06
 2.005921e-06
 1.329914e-06
 2.418486e-06
 -1.144003e-06
 -2.709396e-06
 -6.323793e-07
 5.277610e-07
 1.587630e-07
 -1.643460e-05
 1.626750e-05
 -5.775151e-07
 -2.289672e-07
 -1.299232e-06
 2.332057e-07
 -6.133017e-07
 1.633239e-05
 9.736685e-07
 6.184353e-07
 1.779788e-07
 4.936748e-07
 8.639494e-07
 1.444451e-06
 5.669236e-08
 1.386941e-05
 -1.305053e-07
 1.241435e-06
 8.799919e-07
 1.796065e-06
 1.033455e-06
 1.659330e-07
 -2.904132e-07
 -1.755604e-05
 -1.269933e-06
 -2.002621e-07
 0.000000e+00
 0.000000e+00
 -8.577943e-07
 -5.032167e-07
 2.025867e-06
 -1.467892e-05
 2.416796e-07
 -1.189731e-06
 -1.713222e-05
 -1.647853e-05
 -6.951541e-07
 -1.029311e-06
 -1.566721e-05
 1.896967e-05
 -1.192146e-06
 -1.891717e-06
 1.759872e-05
 -1.735608e-05
 4.320505e-07
 -1.709460e-05
 -1.743980e-05
 -4.091284e-07
 1.682538e-05
 -6.419356e-07
 -1.050718e-06
 6.064654e-07
 -1.608771e-05
 1.657450e-05
 -2.255483e-06
 1.585804e-07
 1.736097e-06
 8.705923e-07
 -3.113616e-07
 1.483208e-05
 -1.425955e-06
 -1.960221e-07
 1.147737e-06
 1.438480e-06
 1.141951e-06
 1.369559e-06
 -6.306101e-08
 3.351740e-05
 -7.026744e-08
 5.077610e-07
 4.662654e-07
 4.981605e-08
 -4.349206e-07
 -1.224006e-06
 -1.993062e-07
 1.186208e-06
 1.407015e-07
 0.000000e+00
 0.000000e+00
 -3.573079e-07
 -2.297574e-07
 -7.543077e-08
 1.044320e-06
 5.144306e-07
 -8.529940e-07
 2.696204e-08
 1.709106e-06
 1.381051e-06
 -1.311900e-06
 2.082663e-06
 4.801433e-06
 3.431142e-08
 1.669974e-05
 -2.180763e-06
 -2.063624e-06
 1.258639e-06
 -4.379296e-07
 1.772223e-06
 1.934783e-06
 -9.555763e-07
 -1.856213e-06
 -8.610126e-07
 -1.967102e-06
 1.224552e-06
 2.699642e-06
 7.778971e-07
 3.660606e-05
 -9.361730e-08
 -4.799690e-07
 4.473406e-07
 -2.039339e-07
 1.644717e-05
 1.872652e-05
 1.651517e-05
 -6.522433e-07
 1.144070e-06
 9.843852e-07
 1.620043e-06
 -3.441129e-07
 -2.284378e-06
 1.260394e-06
 8.989463e-08
 -1.122680e-06
 -8.240525e-07
 -1.822870e-06
 -2.759241e-07
 8.761293e-07
 2.326792e-07
 0.000000e+00
 0.000000e+00
 -4.955668e-07
 -3.104680e-07
 5.513742e-07
 1.250107e-06
 1.693411e-06
 1.723482e-05
 -7.086843e-07
 5.785130e-07
 6.861875e-07
 4.973867e-07
 1.854436e-05
 2.748799e-06
 -1.349812e-05
 2.825023e-07
 -3.890985e-06
 -2.192027e-06
 6.353258e-07
 -1.744779e-05
 -5.067015e-07
 -1.713873e-05
 7.496916e-08
 -5.040605e-07
 5.431287e-07
 -1.023772e-06
 1.746832e-05
 1.547890e-06
 1.035002e-06
 -1.673057e-05
 -1.734361e-05
 8.809375e-08
 -1.430142e-06
 1.191001e-06
 7.517237e-07
 8.896351e-07
 -1.806699e-05
 1.521782e-05
 -3.630443e-07
 1.244672e-06
 -8.748485e-07
 -8.735669e-07
 3.745856e-07
 1.278440e-06
 -1.726291e-05
 -9.024117e-07
 -5.416878e-07
 -3.824843e-07
 1.721106e-05
 -1.915730e-07
 -1.020934e-07
 0.000000e+00
 0.000000e+00
 -1.744771e-06
 -1.698059e-06
 9.561864e-07
 3.796066e-06
 2.662772e-07
 -1.884839e-05
 -4.112981e-07
 1.602594e-06
 7.500663e-07
 5.625493e-07
 1.425107e-07
 -1.717046e-06
 -1.730602e-05
 -3.361817e-05
 -1.766734e-05
 -1.807152e-06
 -7.866583e-08
 -1.664539e-05
 7.736439e-08
 1.289225e-07
 2.303478e-06
 -1.028551e-06
 -1.501437e-06
 -1.539110e-05
 1.888276e-05
 -1.000697e-06
 -7.365052e-07
 1.796022e-05
 2.410083e-06
 -1.615447e-05
 6.308468e-07
 1.963974e-05
 4.317746e-07
 1.603382e-05
 -1.621504e-05
 5.885215e-07
 -2.279463e-06
 -3.232771e-07
 -1.745073e-05
 1.735770e-05
 -4.095539e-07
 -7.926979e-07
 -1.614465e-05
 1.445066e-06
 -4.072539e-07
 7.315366e-07
 -1.212647e-07
 -1.678679e-06
 -5.592689e-07
 0.000000e+00
 0.000000e+00
 -2.993805e-07
 1.622042e-05
 1.579693e-05
 -1.549183e-07
 -3.472435e-05
 1.766191e-05
 1.098414e-06
 3.897104e-07
 -1.675200e-05
 8.050759e-07
 -7.712614e-09
 -1.562973e-06
 -2.135374e-06
 4.527700e-07
 4.946676e-06
 1.421883e-06
 1.539720e-05
 -1.617530e-05
 2.730648e-06
 -1.354137e-06
 -2.723652e-07
 -1.637875e-05
 1.757297e-05
 2.025868e-05
 1.795400e-06
 -2.115229e-06
 -6.283409e-07
 -1.063582e-06
 -2.020974e-05
 -1.610184e-05
 5.285295e-06
 1.411323e-06
 -1.730518e-05
 -1.336884e-06
 -2.281077e-06
 -1.666852e-05
 -2.376483e-07
 -7.081024e-07
 9.511578e-07
 1.212813e-06
 -1.546152e-06
 -1.382492e-06
 4.687037e-08
 -1.563185e-05
 6.703737e-07
 3.838482e-07
 1.066275e-06
 -1.555837e-06
 -1.203719e-06
 0.000000e+00
 0.000000e+00
 -1.637513e-05
 8.083841e-07
 -1.859501e-06
 1.405023e-05
 1.964770e-07
 2.136089e-06
 -1.293701e-06
 -8.084912e-07
 6.870902e-07
 3.075495e-06
 3.418728e-07
 -1.478650e-07
 -7.249200e-08
 -1.602870e-06
 -4.264476e-07
 -3.332842e-05
 -5.642524e-08
 -7.210655e-07
 -1.566053e-05
 -1.653245e-05
 1.781126e-05
 1.624032e-06
 1.394102e-06
 -5.019369e-07
 -1.750329e-05
 -2.899631e-07
 -3.286475e-06
 -2.929208e-06
 2.362133e-07
 2.000510e-05
 2.314756e-06
 -1.747150e-05
 8.898862e-08
 -1.668649e-05
 -9.210128e-07
 8.438617e-09
 1.232213e-06
 3.355001e-07
 5.996692e-07
 3.719710e-07
 -3.551453e-07
 -7.891644e-07
 -9.159192e-07
 1.540516e-06
 1.686172e-06
 -2.666426e-07
 2.131422e-07
 -1.730694e-05
 1.750958e-05
 0.000000e+00
 0.000000e+00
 7.665132e-07
 2.008292e-06
 7.606339e-07
 -1.761874e-06
 -1.509293e-06
 -7.929535e-07
 -1.896575e-06
 -1.083770e-06
 7.496898e-07
 1.072029e-06
 -1.743767e-05
 -4.056679e-07
 -1.824617e-05
 -2.057152e-05
 -2.485128e-06
 2.546888e-06
 4.129227e-06
 3.615262e-09
 -7.904952e-07
 3.068729e-06
 3.055324e-06
 2.244167e-07
 7.539209e-07
 1.598173e-05
 1.474321e-07
 2.871980e-06
 -3.150329e-07
 3.456084e-05
 1.744765e-05
 -7.597107e-07
 -1.845523e-06
 -4.815079e-07
 2.679155e-07
 3.011962e-07
 1.392644e-06
 3.832361e-07
 -6.421504e-07
 4.477445e-07
 1.185880e-06
 4.962250e-07
 -1.323811e-07
 -7.132119e-07
 -6.845519e-07
 -2.121772e-07
 -1.726060e-05
 4.490223e-07
 9.569044e-08
 1.465630e-06
 1.706134e-06
 0.000000e+00
 0.000000e+00
 6.091842e-07
 1.219154e-06
 1.072546e-06
 4.637201e-07
 1.862515e-05
 -2.364490e-07
 1.597124e-05
 1.644075e-05
 1.668513e-05
 -1.489220e-06
 -8.667005e-07
 7.538908e-08
 -3.241043e-07
 1.413718e-06
 3.640786e-05
 1.948787e-05
 1.298577e-06
 3.088734e-07
 1.951188e-06
 1.868272e-05
 4.455933e-07
 1.132208e-06
 1.908779e-06
 6.213429e-07
 1.725195e-05
 -1.290288e-06
 -1.703118e-05
 -2.518385e-07
 -2.117477e-05
 -9.879223e-07
 -4.765305e-08
 -1.726353e-06
 -5.510870e-07
 4.789606e-07
 5.949310e-07
 9.519087e-07
 7.485602e-07
 1.794746e-05
 -5.989931e-07
 1.284086e-06
 2.740812e-07
 -1.488977e-06
 -8.869549e-07
 -1.207027e-06
 -1.180202e-06
 1.749942e-06
 1.821098e-06
 1.108549e-06
 6.883880e-07
 0.000000e+00
 0.000000e+00
 -3.202462e-07
 1.847043e-06
 1.861240e-06
 1.305134e-06
 3.646531e-07
 -1.674443e-05
 -7.571496e-07
 -1.989587e-06
 -1.779747e-06
 -2.481876e-06
 -3.117686e-06
 -1.417477e-07
 2.262189e-06
 2.616344e-06
 6.244859e-08
 -2.016734e-06
 -1.739556e-05
 9.828103e-07
 1.622868e-06
 -1.682726e-05
 -6.197055e-07
 9.438029e-07
 2.864248e-06
 2.038749e-06
 -8.969082e-07
 -2.017973e-05
 1.694001e-05
 1.251874e-07
 1.830364e-05
 1.869880e-05
 -5.308767e-07
 -5.479391e-07
 1.659417e-05
 -2.752251e-06
 1.199935e-07
 2.192411e-06
 1.657801e-06
 6.210546e-07
 2.076156e-07
 1.728827e-05
 -1.875105e-05
 -1.903016e-06
 -6.284860e-07
 2.921423e-07
 -9.514761e-07
 1.821028e-05
 1.747737e-06
 8.226948e-07
 2.635090e-07
 0.000000e+00
 0.000000e+00
 1.899569e-05
 1.906824e-05
 6.165475e-07
 -3.913934e-07
 -9.044553e-07
 -1.749054e-09
 -1.605780e-05
 1.727008e-05
 -1.919355e-06
 -6.604818e-07
 4.852678e-07
 3.424083e-05
 6.943741e-07
 1.467721e-06
 -1.108894e-06
 1.611868e-05
 8.073871e-07
 1.885206e-06
 7.468421e-07
 -4.415071e-10
 7.361779e-07
 -6.853412e-08
 1.719310e-06
 -1.334262e-05
 -4.226654e-07
 -1.179810e-06
 6.485464e-07
 -1.895731e-06
 -6.565194e-07
 -1.626248e-05
 1.265468e-06
 5.118307e-08
 -8.446585e-07
 -1.470037e-06
 3.453013e-05
 1.148673e-08
 3.431705e-07
 2.910393e-07
 6.793423e-07
 -1.816229e-05
 -1.235884e-06
 6.523181e-07
 1.715323e-05
 1.901898e-08
 9.953187e-07
 1.797170e-05
 4.978542e-07
 3.834801e-07
 -5.665448e-07
 0.000000e+00
 0.000000e+00
 -1.220077e-05
 2.112101e-07
 -1.882399e-05
 1.277840e-06
 -1.243364e-06
 -1.340236e-06
 1.788562e-06
 1.552674e-06
 -1.027222e-06
 1.765453e-05
 1.927410e-06
 1.780838e-06
 1.580301e-05
 3.703757e-07
 1.046378e-07
 1.500487e-05
 -3.112161e-07
 1.821709e-06
 -1.980303e-06
 -1.964974e-05
 9.442014e-07
 1.734667e-06
 1.907141e-05
 5.709458e-07
 -3.434979e-05
 6.932144e-07
 9.196894e-07
 -9.710552e-07
 1.517074e-05
 1.775200e-05
 -1.559869e-05
 -1.789670e-05
 1.821059e-06
 2.151566e-06
 -1.108432e-06
 -2.867849e-06
 -5.644073e-07
 -3.325514e-07
 -7.242866e-07
 1.228423e-06
 2.514705e-06
 3.205948e-07
 -7.618460e-07
 -1.102430e-06
 8.691347e-07
 3.952613e-08
 -1.203286e-06
 -1.638062e-05
 2.014344e-07
 0.000000e+00
 0.000000e+00
 4.647771e-06
 -1.683562e-05
 1.327277e-07
 2.725609e-06
 -1.668880e-05
 1.758952e-05
 1.477739e-07
 3.703940e-07
 1.108957e-06
 5.550019e-07
 -1.429731e-06
 1.282565e-06
 -1.548174e-05
 -2.052884e-06
 -1.798618e-05
 -2.281018e-07
 1.564917e-05
 -1.796599e-05
 -1.728002e-05
 1.725331e-05
 1.793519e-05
 1.174489e-06
 2.316378e-06
 -2.003364e-05
 -9.089320e-07
 3.663437e-06
 4.166548e-06
 2.990209e-06
 1.684737e-05
 1.419556e-05
 -2.436814e-06
 1.139369e-06
 2.026363e-05
 -1.799467e-05
 -9.094694e-07
 -1.662586e-07
 -6.770409e-07
 -6.206621e-07
 -5.232328e-07
 -2.017461e-07
 -1.722397e-05
 -1.685086e-05
 5.012400e-07
 1.187205e-07
 -1.183843e-08
 -4.090539e-07
 -1.271466e-06
 -2.196981e-07
 -1.625328e-05
 0.000000e+00
 0.000000e+00
 1.103192e-07
 -1.655152e-05
 1.960800e-05
 1.854370e-06
 2.000304e-06
 9.771278e-07
 -1.471825e-06
 -1.340707e-06
 5.769082e-07
 1.578975e-06
 6.386805e-07
 1.694306e-05
 3.248507e-08
 -1.482312e-05
 1.635153e-05
 -3.098968e-07
 -9.721660e-07
 -2.290087e-06
 1.507534e-06
 -1.574048e-05
 -2.298387e-06
 -1.768360e-06
 -9.322940e-07
 -3.549625e-05
 2.109375e-06
 2.162549e-06
 9.692829e-07
 -3.355755e-05
 -1.486342e-05
 -4.150062e-07
 -1.954305e-06
 -9.709487e-07
 -6.506708e-07
 -1.777173e-05
 1.844206e-05
 -5.588669e-07
 -8.748240e-07
 -8.769428e-07
 -6.106519e-07
 -1.020864e-06
 -1.722793e-06
 1.701949e-06
 2.586834e-06
 3.999537e-07
 -3.007456e-07
 -6.860415e-07
 -6.602335e-07
 -9.331024e-07
 -4.468799e-08
 0.000000e+00
 0.000000e+00
 -6.283201e-07
 8.369417e-07
 1.605527e-06
 -2.313809e-07
 -1.520552e-05
 2.006912e-06
 -1.710565e-06
 -8.645226e-07
 1.836254e-05
 9.715606e-07
 2.569122e-06
 -3.478914e-07
 -3.219785e-06
 1.427587e-06
 -3.364295e-05
 1.576602e-05
 -5.537644e-07
 5.030694e-07
 -1.740269e-06
 -6.029584e-07
 1.170798e-06
 1.648549e-05
 -3.673418e-06
 -2.618964e-06
 4.076443e-06
 3.508074e-06
 1.582911e-06
 1.763945e-05
 2.181003e-05
 2.500275e-06
 -6.997939e-07
 -4.977086e-07
 1.630727e-05
 5.267298e-07
 9.434457e-07
 -2.004693e-06
 -1.286096e-06
 -1.942414e-06
 -5.249455e-07
 1.502392e-06
 3.193899e-07
 1.848832e-05
 4.363069e-07
 3.226915e-07
 -5.033004e-07
 -2.009030e-06
 -8.464217e-08
 5.007873e-07
 -1.906668e-07
 0.000000e+00
 0.000000e+00
 7.169712e-07