<VTKFile type="UnstructuredGrid"  version="0.1"   >
<UnstructuredGrid>  
<Piece  NumberOfPoints="     2601"  NumberOfCells="     5000">  
<Points>  
<DataArray  type="Float64"  NumberOfComponents="3"  format="ascii">  
 0.000000 0.000000 0.000000 
 0.020000 0.000000 0.000000 
 0.040000 0.000000 0.000000 
 0.060000 0.000000 0.000000 
 0.080000 0.000000 0.000000 
 0.100000 0.000000 0.000000 
 0.120000 0.000000 0.000000 
 0.140000 0.000000 0.000000 
 0.160000 0.000000 0.000000 
 0.180000 0.000000 0.000000 
 0.200000 0.000000 0.000000 
 0.220000 0.000000 0.000000 
 0.240000 0.000000 0.000000 
 0.260000 0.000000 0.000000 
 0.280000 0.000000 0.000000 
 0.300000 0.000000 0.000000 
 0.320000 0.000000 0.000000 
 0.340000 0.000000 0.000000 
 0.360000 0.000000 0.000000 
 0.380000 0.000000 0.000000 
 0.400000 0.000000 0.000000 
 0.420000 0.000000 0.000000 
 0.440000 0.000000 0.000000 
 0.460000 0.000000 0.000000 
 0.480000 0.000000 0.000000 
 0.500000 0.000000 0.000000 
 0.520000 0.000000 0.000000 
 0.540000 0.000000 0.000000 
 0.560000 0.000000 0.000000 
 0.580000 0.000000 0.000000 
 0.600000 0.000000 0.000000 
 0.620000 0.000000 0.000000 
 0.640000 0.000000 0.000000 
 0.660000 0.000000 0.000000 
 0.680000 0.000000 0.000000 
 0.700000 0.000000 0.000000 
 0.720000 0.000000 0.000000 
 0.740000 0.000000 0.000000 
 0.760000 0.000000 0.000000 
 0.780000 0.000000 0.000000 
 0.800000 0.000000 0.000000 
 0.820000 0.000000 0.000000 
 0.840000 0.000000 0.000000 
 0.860000 0.000000 0.000000 
 0.880000 0.000000 0.000000 
 0.900000 0.000000 0.000000 
 0.920000 0.000000 0.000000 
 0.940000 0.000000 0.000000 
 0.960000 0.000000 0.000000 
 0.980000 0.000000 0.000000 
 1.000000 0.000000 0.000000 
 0.000000 0.020000 0.000000 
 0.020000 0.020000 0.000000 
 0.040000 0.020000 0.000000 
 0.060000 0.020000 0.000000 
 0.080000 0.020000 0.000000 
 0.100000 0.020000 0.000000 
 0.120000 0.020000 0.000000 
 0.140000 0.020000 0.000000 
 0.160000 0.020000 0.000000 
 0.180000 0.020000 0.000000 
 0.200000 0.020000 0.000000 
 0.220000 0.020000 0.000000 
 0.240000 0.020000 0.000000 
 0.260000 0.020000 0.000000 
 0.280000 0.020000 0.000000 
 0.300000 0.020000 0.000000 
 0.320000 0.020000 0.000000 
 0.340000 0.020000 0.000000 
 0.360000 0.020000 0.000000 
 0.380000 0.020000 0.000000 
 0.400000 0.020000 0.000000 
 0.420000 0.020000 0.000000 
 0.440000 0.020000 0.000000 
 0.460000 0.020000 0.000000 
 0.480000 0.020000 0.000000 
 0.500000 0.020000 0.000000 
 0.520000 0.020000 0.000000 
 0.540000 0.020000 0.000000 
 0.560000 0.020000 0.000000 
 0.580000 0.020000 0.000000 
 0.600000 0.020000 0.000000 
 0.620000 0.020000 0.000000 
 0.640000 0.020000 0.000000 
 0.660000 0.020000 0.000000 
 0.680000 0.020000 0.000000 
 0.700000 0.020000 0.000000 
 0.720000 0.020000 0.000000 
 0.740000 0.020000 0.000000 
 0.760000 0.020000 0.000000 
 0.780000 0.020000 0.000000 
 0.800000 0.020000 0.000000 
 0.820000 0.020000 0.000000 
 0.840000 0.020000 0.000000 
 0.860000 0.020000 0.000000 
 0.880000 0.020000 0.000000 
 0.900000 0.020000 0.000000 
 0.920000 0.020000 0.000000 
 0.940000 0.020000 0.000000 
 0.960000 0.020000 0.000000 
 0.980000 0.020000 0.000000 
 1.000000 0.020000 0.000000 
 0.000000 0.040000 0.000000 
 0.020000 0.040000 0.000000 
 0.040000 0.040000 0.000000 
 0.060000 0.040000 0.000000 
 0.080000 0.040000 0.000000 
 0.100000 0.040000 0.000000 
 0.120000 0.040000 0.000000 
 0.140000 0.040000 0.000000 
 0.160000 0.040000 0.000000 
 0.180000 0.040000 0.000000 
 0.200000 0.040000 0.000000 
 0.220000 0.040000 0.000000 
 0.240000 0.040000 0.000000 
 0.260000 0.040000 0.000000 
 0.280000 0.040000 0.000000 
 0.300000 0.040000 0.000000 
 0.320000 0.040000 0.000000 
 0.340000 0.040000 0.000000 
 0.360000 0.040000 0.000000 
 0.380000 0.040000 0.000000 
 0.400000 0.040000 0.000000 
 0.420000 0.040000 0.000000 
 0.440000 0.040000 0.000000 
 0.460000 0.040000 0.000000 
 0.480000 0.040000 0.000000 
 0.500000 0.040000 0.000000 
 0.520000 0.040000 0.000000 
 0.540000 0.040000 0.000000 
 0.560000 0.040000 0.000000 
 0.580000 0.040000 0.000000 
 0.600000 0.040000 0.000000 
 0.620000 0.040000 0.000000 
 0.640000 0.040000 0.000000 
 0.660000 0.040000 0.000000 
 0.680000 0.040000 0.000000 
 0.700000 0.040000 0.000000 
 0.720000 0.040000 0.000000 
 0.740000 0.040000 0.000000 
 0.760000 0.040000 0.000000 
 0.780000 0.040000 0.000000 
 0.800000 0.040000 0.000000 
 0.820000 0.040000 0.000000 
 0.840000 0.040000 0.000000 
 0.860000 0.040000 0.000000 
 0.880000 0.040000 0.000000 
 0.900000 0.040000 0.000000 
 0.920000 0.040000 0.000000 
 0.940000 0.040000 0.000000 
 0.960000 0.040000 0.000000 
 0.980000 0.040000 0.000000 
 1.000000 0.040000 0.000000 
 0.000000 0.060000 0.000000 
 0.020000 0.060000 0.000000 
 0.040000 0.060000 0.000000 
 0.060000 0.060000 0.000000 
 0.080000 0.060000 0.000000 
 0.100000 0.060000 0.000000 
 0.120000 0.060000 0.000000 
 0.140000 0.060000 0.000000 
 0.160000 0.060000 0.000000 
 0.180000 0.060000 0.000000 
 0.200000 0.060000 0.000000 
 0.220000 0.060000 0.000000 
 0.240000 0.060000 0.000000 
 0.260000 0.060000 0.000000 
 0.280000 0.060000 0.000000 
 0.300000 0.060000 0.000000 
 0.320000 0.060000 0.000000 
 0.340000 0.060000 0.000000 
 0.360000 0.060000 0.000000 
 0.380000 0.060000 0.000000 
 0.400000 0.060000 0.000000 
 0.420000 0.060000 0.000000 
 0.440000 0.060000 0.000000 
 0.460000 0.060000 0.000000 
 0.480000 0.060000 0.000000 
 0.500000 0.060000 0.000000 
 0.520000 0.060000 0.000000 
 0.540000 0.060000 0.000000 
 0.560000 0.060000 0.000000 
 0.580000 0.060000 0.000000 
 0.600000 0.060000 0.000000 
 0.620000 0.060000 0.000000 
 0.640000 0.060000 0.000000 
 0.660000 0.060000 0.000000 
 0.680000 0.060000 0.000000 
 0.700000 0.060000 0.000000 
 0.720000 0.060000 0.000000 
 0.740000 0.060000 0.000000 
 0.760000 0.060000 0.000000 
 0.780000 0.060000 0.000000 
 0.800000 0.060000 0.000000 
 0.820000 0.060000 0.000000 
 0.840000 0.060000 0.000000 
 0.860000 0.060000 0.000000 
 0.880000 0.060000 0.000000 
 0.900000 0.060000 0.000000 
 0.920000 0.060000 0.000000 
 0.940000 0.060000 0.000000 
 0.960000 0.060000 0.000000 
 0.980000 0.060000 0.000000 
 1.000000 0.060000 0.000000 
 0.000000 0.080000 0.000000 
 0.020000 0.080000 0.000000 
 0.040000 0.080000 0.000000 
 0.060000 0.080000 0.000000 
 0.080000 0.080000 0.000000 
 0.100000 0.080000 0.000000 
 0.120000 0.080000 0.000000 
 0.140000 0.080000 0.000000 
 0.160000 0.080000 0.000000 
 0.180000 0.080000 0.000000 
 0.200000 0.080000 0.000000 
 0.220000 0.080000 0.000000 
 0.240000 0.080000 0.000000 
 0.260000 0.080000 0.000000 
 0.280000 0.080000 0.000000 
 0.300000 0.080000 0.000000 
 0.320000 0.080000 0.000000 
 0.340000 0.080000 0.000000 
 0.360000 0.080000 0.000000 
 0.380000 0.080000 0.000000 
 0.400000 0.080000 0.000000 
 0.420000 0.080000 0.000000 
 0.440000 0.080000 0.000000 
 0.460000 0.080000 0.000000 
 0.480000 0.080000 0.000000 
 0.500000 0.080000 0.000000 
 0.520000 0.080000 0.000000 
 0.540000 0.080000 0.000000 
 0.560000 0.080000 0.000000 
 0.580000 0.080000 0.000000 
 0.600000 0.080000 0.000000 
 0.620000 0.080000 0.000000 
 0.640000 0.080000 0.000000 
 0.660000 0.080000 0.000000 
 0.680000 0.080000 0.000000 
 0.700000 0.080000 0.000000 
 0.720000 0.080000 0.000000 
 0.740000 0.080000 0.000000 
 0.760000 0.080000 0.000000 
 0.780000 0.080000 0.000000 
 0.800000 0.080000 0.000000 
 0.820000 0.080000 0.000000 
 0.840000 0.080000 0.000000 
 0.860000 0.080000 0.000000 
 0.880000 0.080000 0.000000 
 0.900000 0.080000 0.000000 
 0.920000 0.080000 0.000000 
 0.940000 0.080000 0.000000 
 0.960000 0.080000 0.000000 
 0.980000 0.080000 0.000000 
 1.000000 0.080000 0.000000 
 0.000000 0.100000 0.000000 
 0.020000 0.100000 0.000000 
 0.040000 0.100000 0.000000 
 0.060000 0.100000 0.000000 
 0.080000 0.100000 0.000000 
 0.100000 0.100000 0.000000 
 0.120000 0.100000 0.000000 
 0.140000 0.100000 0.000000 
 0.160000 0.100000 0.000000 
 0.180000 0.100000 0.000000 
 0.200000 0.100000 0.000000 
 0.220000 0.100000 0.000000 
 0.240000 0.100000 0.000000 
 0.260000 0.100000 0.000000 
 0.280000 0.100000 0.000000 
 0.300000 0.100000 0.000000 
 0.320000 0.100000 0.000000 
 0.340000 0.100000 0.000000 
 0.360000 0.100000 0.000000 
 0.380000 0.100000 0.000000 
 0.400000 0.100000 0.000000 
 0.420000 0.100000 0.000000 
 0.440000 0.100000 0.000000 
 0.460000 0.100000 0.000000 
 0.480000 0.100000 0.000000 
 0.500000 0.100000 0.000000 
 0.520000 0.100000 0.000000 
 0.540000 0.100000 0.000000 
 0.560000 0.100000 0.000000 
 0.580000 0.100000 0.000000 
 0.600000 0.100000 0.000000 
 0.620000 0.100000 0.000000 
 0.640000 0.100000 0.000000 
 0.660000 0.100000 0.000000 
 0.680000 0.100000 0.000000 
 0.700000 0.100000 0.000000 
 0.720000 0.100000 0.000000 
 0.740000 0.100000 0.000000 
 0.760000 0.100000 0.000000 
 0.780000 0.100000 0.000000 
 0.800000 0.100000 0.000000 
 0.820000 0.100000 0.000000 
 0.840000 0.100000 0.000000 
 0.860000 0.100000 0.000000 
 0.880000 0.100000 0.000000 
 0.900000 0.100000 0.000000 
 0.920000 0.100000 0.000000 
 0.940000 0.100000 0.000000 
 0.960000 0.100000 0.000000 
 0.980000 0.100000 0.000000 
 1.000000 0.100000 0.000000 
 0.000000 0.120000 0.000000 
 0.020000 0.120000 0.000000 
 0.040000 0.120000 0.000000 
 0.060000 0.120000 0.000000 
 0.080000 0.120000 0.000000 
 0.100000 0.120000 0.000000 
 0.120000 0.120000 0.000000 
 0.140000 0.120000 0.000000 
 0.160000 0.120000 0.000000 
 0.180000 0.120000 0.000000 
 0.200000 0.120000 0.000000 
 0.220000 0.120000 0.000000 
 0.240000 0.120000 0.000000 
 0.260000 0.120000 0.000000 
 0.280000 0.120000 0.000000 
 0.300000 0.120000 0.000000 
 0.320000 0.120000 0.000000 
 0.340000 0.120000 0.000000 
 0.360000 0.120000 0.000000 
 0.380000 0.120000 0.000000 
 0.400000 0.120000 0.000000 
 0.420000 0.120000 0.000000 
 0.440000 0.120000 0.000000 
 0.460000 0.120000 0.000000 
 0.480000 0.120000 0.000000 
 0.500000 0.120000 0.000000 
 0.520000 0.120000 0.000000 
 0.540000 0.120000 0.000000 
 0.560000 0.120000 0.000000 
 0.580000 0.120000 0.000000 
 0.600000 0.120000 0.000000 
[...]
<PointData  Scalars="U"> 
<DataArray  type="Float64"  Name="U"  format="ascii"> 
 0.000000e+00
 0.000000e+00
 0.000000e+00
 0.000000e+00
 0.000000e+00
 0.000000e+00
 0.000000e+00
 0.000000e+00
 0.000000e+00
 0.000000e+00
 0.000000e+00
 0.000000e+00
 0.000000e+00
 0.000000e+00
 0.000000e+00
 0.000000e+00
 0.000000e+00
 0.000000e+00
 0.000000e+00
 0.000000e+00
 0.000000e+00
 0.000000e+00
 0.000000e+00
 0.000000e+00
 0.000000e+00
 0.000000e+00
 0.000000e+00
 0.000000e+00
 0.000000e+00
 0.000000e+00
 0.000000e+00
 0.000000e+00
 0.000000e+00
 0.000000e+00
 0.000000e+00
 0.000000e+00
 0.000000e+00
 0.000000e+00
 0.000000e+00
 0.000000e+00
 0.000000e+00
 0.000000e+00
 0.000000e+00
 0.000000e+00
 0.000000e+00
 0.000000e+00
 0.000000e+00
 0.000000e+00
 0.000000e+00
 0.000000e+00
 0.000000e+00
 0.000000e+00
 2.734960e-07
 1.763934e-05
 5.546852e-08
 -6.157458e-07
 1.866098e-05
 3.908234e-06
 2.194978e-05
 5.731632e-06
 4.399067e-06
 1.406391e-06
 5.567274e-07
 2.202165e-07
 -1.090851e-06
 6.784453e-08
 -1.616384e-05
 1.128832e-06
 1.377722e-06
 3.125957e-06
 3.692348e-06
 1.539812e-06
 7.588088e-07
 1.875943e-05
 1.046707e-07
 -7.519927e-07
 -1.335542e-06
 -1.792293e-05
 1.644745e-05
 -4.163057e-06
 -2.124612e-05
 -1.746478e-05
 1.426802e-06
 2.502574e-06
 5.825812e-06
 1.010999e-05
 8.057948e-06
 1.631538e-06
 -2.127670e-06
 -3.194570e-06
 -1.806252e-06
 -3.682815e-06
 -3.728353e-06
 -9.412872e-07
 -1.364609e-06
 6.323538e-07
 2.652039e-06
 3.509315e-06
 1.668762e-06
 4.108618e-07
 9.165304e-08
 0.000000e+00
 0.000000e+00
 1.109448e-06
 4.747536e-07
 -7.041226e-07
 1.190051e-06
 1.959653e-05
 2.140216e-06
 -1.576910e-05
 1.372411e-06
 3.683367e-06
 1.656704e-06
 4.944519e-07
 9.936072e-07
 4.052764e-07
 1.691603e-05
 6.396002e-07
 3.295365e-06
 1.233379e-06
 -1.935844e-07
 1.779811e-06
 3.258222e-06
 6.789097e-07
 -1.161303e-06
 -1.763243e-05
 9.213584e-07
 4.972904e-07
 1.757832e-05
 -1.383352e-06
 -5.585330e-06
 -3.675118e-06
 1.874789e-06
 4.491005e-06
 2.712716e-06
 3.199162e-06
 3.889945e-06
 5.405808e-06
 2.846345e-06
 4.517891e-07
 -9.547664e-07
 2.115573e-07
 -2.673634e-06
 -2.701562e-06
 7.425701e-07
 -3.892797e-07
 1.725809e-05
 1.354262e-06
 1.879897e-05
 5.196030e-07
 1.504819e-07
 5.404523e-08
 0.000000e+00
 0.000000e+00
 4.226682e-07
 1.532621e-06
 4.342778e-07
 4.097924e-07
 -9.551965e-08
 -2.018797e-05
 -1.623501e-05
 4.089733e-06
 2.225206e-06
 -1.700730e-05
 1.645427e-06
 3.359867e-06
 1.674926e-06
 -3.505811e-07
 -8.148761e-07
 6.818689e-07
 -1.739308e-05
 1.385218e-06
 1.835386e-05
 -8.981664e-07
 -1.587537e-05
 1.875570e-05
 1.787273e-05
 1.305180e-06
 6.131083e-07
 -1.796009e-05
 -2.082398e-06
 -1.386464e-06
 1.760643e-05
 1.724617e-05
 -1.804555e-07
 -1.579927e-05
 2.941621e-06
 3.189583e-06
 2.002201e-05
 -1.607996e-05
 3.379053e-07
 -1.789515e-05
 -4.604760e-07
 -3.408247e-05
 1.937689e-05
 -1.027918e-06
 -1.835901e-05
 4.430741e-07
 1.571806e-06
 5.435002e-07
 -1.953166e-06
 -3.984960e-07
 2.499971e-08
 0.000000e+00
 0.000000e+00
 -2.229456e-07
 -3.121878e-08
 -1.723188e-05
 1.026321e-06
 -1.185200e-06
 -1.632908e-06
 1.855787e-05
 4.158034e-06
 1.739944e-06
 6.273244e-07
 2.098429e-05
 1.639000e-06
 -1.683185e-05
 9.523803e-07
 5.281823e-07
 -1.242446e-07
 1.383553e-06
 2.125815e-05
 1.872908e-06
 1.786206e-05
 3.580997e-05
 9.812696e-07
 -1.784012e-07
 -1.453667e-06
 -8.969581e-07
 -7.322124e-07
 1.074034e-06
 7.147473e-07
 1.141348e-06
 -1.901264e-05
 -4.019641e-06
 6.429806e-07
 4.209891e-06
 3.222659e-06
 6.718566e-07
 -6.011893e-07
 6.177598e-07
 -4.100395e-07
 -7.346356e-07
 6.650508e-07
 -1.522275e-05
 -3.655731e-05
 2.760003e-07
 1.668971e-06
 7.277190e-07
 -1.606414e-05
 -1.145489e-06
 -8.584452e-07
 6.464401e-07
 0.000000e+00
 0.000000e+00
 -1.757316e-06
 -1.361400e-06
 2.437397e-07
 -2.444071e-07
 -1.871596e-05
 6.575466e-07
 1.852690e-06
 1.736017e-05
 -1.667308e-05
 -1.603332e-07
 -2.108177e-07
 -1.714348e-05
 6.951473e-07
 3.484656e-06
 1.837460e-06
 -6.551750e-07
 1.965221e-06
 2.601632e-06
 2.430338e-06
 3.085204e-06
 -2.048071e-05
 -3.859002e-06
 -6.709822e-07
 -1.752062e-05
 -1.058328e-06
 -1.907257e-05
 -5.276437e-07
 -1.625684e-05
 1.769160e-07
 -1.555105e-05
 2.102548e-07
 1.707080e-05
 2.374439e-06
 3.009909e-06
 -2.098504e-07
 -5.835968e-07
 1.821900e-06
 -1.013736e-06
 -1.297064e-06
 -6.912379e-07
 -1.393964e-06
 1.317267e-06
 2.859439e-06
 5.058909e-07
 -5.035508e-07
 -2.971080e-07
 -1.554566e-05
 1.742796e-05
 1.661439e-08
 0.000000e+00
 0.000000e+00
 -8.277582e-07
 1.619997e-05
 -8.994568e-07
 -8.717140e-07
 1.769886e-05
 1.945179e-05
 1.925695e-05
 9.133728e-07
 1.664460e-05
 1.002182e-06
 3.594206e-05
 1.652498e-05
 1.609346e-06
 1.781190e-05
 -1.580012e-05
 2.045644e-06
 1.872189e-05
 4.172682e-07
 -6.294289e-08
 -1.758458e-05
 -1.649095e-05
 1.744619e-05
 -2.923708e-06
 -2.466499e-06
 -1.798214e-05
 -4.583537e-07
 -1.706841e-06
 -1.228185e-06
 -1.468870e-05
 1.152034e-06
 -3.189357e-05
 1.982993e-05
 -7.778426e-07
 1.408866e-06
 -1.609018e-05
 1.624071e-05
 -4.430404e-08
 -1.552931e-05
 1.737784e-05
 -1.253250e-06
 -4.616361e-07
 3.330051e-07
 7.890486e-07
 -6.420395e-07
 -1.872897e-06
 2.045102e-06
 2.078816e-05
 1.036891e-06
 1.633907e-05
 0.000000e+00
 0.000000e+00
 -4.682484e-07
 -2.758069e-06
 -2.298623e-06
 7.812326e-07
 6.583021e-07
 -1.400932e-07
 3.477674e-07
 -5.010360e-07
 -1.830268e-05
 9.339605e-07
 2.622413e-06
 -1.954402e-05
 1.560400e-05
 -1.882102e-05
 1.704331e-05
 -1.246408e-05
 -1.643191e-06
 -2.035096e-05
 2.878253e-07
 -4.648313e-07
 1.805139e-06
 -1.665794e-05
 -2.836667e-06
 -1.324740e-06
 1.757418e-05
 -1.088843e-06
 -2.420371e-06
 1.665298e-05
 1.803832e-05
 -1.617541e-05
 2.118346e-05
 4.781536e-06
 -5.599510e-07
 1.986779e-05
 1.700658e-06
 -6.592410e-07
 1.517738e-05
 5.277909e-07
 -1.617875e-05
 -8.991609e-07
 1.553570e-09
 2.910295e-07
 7.835721e-07
 1.997543e-06
 1.834141e-05
 3.670539e-05
 -1.685099e-05
 -8.144966e-07
 -1.782107e-07
 0.000000e+00
 0.000000e+00
 -1.871581e-06
 -2.901973e-06
 1.631289e-05
 -4.784492e-07
 -1.359040e-06
 -1.192774e-06
 -4.589990e-07
 -1.734435e-05
 -2.086399e-06
 1.077430e-06
 1.748224e-06
 -1.581057e-05
 -9.433350e-07
 -2.316940e-06
 -5.221149e-07
 1.254990e-06
 -3.398428e-05
 3.406131e-05
 8.133374e-07
 7.907397e-07
 -1.419250e-06
 -1.084348e-06
 2.187262e-06
 1.924781e-05
 1.148508e-06
 -2.850596e-06
 1.521753e-05
 1.733043e-05
 -5.143165e-06
 9.603488e-08
 5.504415e-06
 2.889946e-06
 1.924198e-06
 1.815619e-05
 -3.719014e-05
 -5.055158e-07
 -3.131035e-07
 -2.202888e-06
 1.363341e-07
 2.672516e-06
 6.626418e-07
 -9.269670e-08
 7.287985e-07
 1.680830e-06
 -1.534918e-05
 -1.345827e-06
 -1.988373e-05
 7.295041e-07
 1.777944e-08
 0.000000e+00
 0.000000e+00
 -2.128512e-05
 -1.885514e-06
 -4.011685e-06
 -2.361700e-05
 -1.822264e-05
 -5.960182e-07
 -1.422311e-06
 5.038345e-07
 -1.567268e-05
 3.580436e-05
 6.342946e-07
 3.425713e-07
 -2.148580e-05
 -2.306976e-06
 2.040154e-06
 1.773038e-05
 -1.204677e-05
 1.972701e-05
 -6.025379e-06
 -7.691339e-07
 -1.622662e-05
 2.086725e-05
 1.899521e-05
 2.393182e-07
 5.553943e-07
 -1.712936e-05
 1.718758e-05
 1.559422e-05
 -2.149787e-06
 5.113824e-05
 1.052390e-06
 1.956628e-06
 -1.721074e-05
 -1.223808e-06
 -1.848496e-05
 1.891365e-05
 -1.508065e-06
 -5.545727e-07
 -7.341190e-07
 2.589330e-07
 -1.610669e-05
 1.036647e-06
 9.244977e-07
 -1.100729e-06
 1.280478e-07
 1.863059e-06
 -2.105122e-07
 -5.505747e-07
 8.720493e-08
 0.000000e+00
 0.000000e+00
 -2.148510e-05
 -2.665027e-06
 -2.054459e-05
 1.558194e-05
 3.510750e-05
 1.612798e-07
 1.499598e-05
 -1.182899e-06
 2.615072e-06
 2.482050e-06
 -1.940719e-06
 -1.971411e-05
 -1.817469e-05
 5.495530e-05
 1.906310e-05
 -2.281182e-06
 -1.651163e-06
 -5.125828e-05
 -1.227950e-06
 1.672560e-05
 3.938048e-07
 3.578349e-06
 -3.653386e-05
 -2.210810e-06
 -1.586596e-05
 -1.414853e-05
 2.270549e-06
 -1.224705e-06
 7.986392e-07
 -4.159029e-07
 1.560738e-05
 -1.561193e-08
 6.593944e-08
 2.052960e-05
 -4.032352e-07
 -1.598612e-06
 -4.319251e-07
 1.868951e-05
 -7.938613e-07
 1.580448e-05
 2.954823e-07
 2.133703e-06
 3.277443e-06
 1.499476e-06
 1.573029e-05
 -2.180622e-06
 -1.713389e-05
 1.407230e-06
 1.793464e-05
 0.000000e+00
 0.000000e+00
 -1.184686e-06
 -1.443784e-06
 1.628356e-05
 2.993087e-07
 -7.245761e-07
 -1.953664e-06
 -3.286717e-06
 1.488801e-05
 -2.878350e-07
 -1.082633e-06
 -2.078377e-05
 -1.851922e-05
 4.688072e-06
 2.382574e-06
 -2.082571e-05
 -2.126489e-05
 -4.467699e-06
 1.666292e-07
 5.149515e-06
 1.284007e-06
 3.915554e-07
 1.695175e-05
 -1.997562e-05
 1.638259e-05
 1.537911e-07
 -1.504446e-05
 -1.445702e-05
 1.727923e-06
 1.693153e-06
 6.803736e-08
 -3.529672e-06
 -3.771349e-05
 -1.695671e-05
 -1.625341e-05
 -5.299747e-05
 -1.795396e-06
 -7.807922e-07
 -1.524370e-05
 -1.675717e-05
 -8.486917e-07
 -1.265683e-07
 3.097416e-07
 -2.776356e-08
 -3.364978e-05
 -1.806416e-05
 -1.371046e-06
 1.901386e-05
 2.760966e-06
 5.428157e-07
 0.000000e+00
 0.000000e+00
 -4.932562e-06
 -1.874958e-05
 8.495035e-07
 -1.804560e-06
 1.656163e-05
 -1.848927e-05
 2.854099e-07
 1.591364e-05
 -3.927770e-06
 -2.940184e-06
 -2.280289e-06
 1.812164e-05
 2.763907e-06
 -9.116614e-07
 -3.458195e-06
 -2.016702e-05
 -7.851441e-07
 9.907668e-07
 2.006292e-06
 2.616296e-06
 8.094620e-07
 -2.034524e-05
 -1.689726e-05
 1.818583e-05
 1.483612e-05
 2.516160e-06
 1.994578e-05
 6.175642e-07
 2.751506e-08
 -1.810235e-05
 -2.820347e-06
 1.487411e-05
 -2.111268e-06
 -2.139978e-06
 -1.302809e-05
 5.013439e-06
 1.440908e-05
 1.786089e-05
 -1.577366e-05
 6.413143e-07
 -6.166606e-07
 -1.767035e-05
 -1.497526e-06
 5.557102e-07
 4.474516e-06
 2.060624e-05
 2.006892e-06
 -4.406097e-07
 -5.148457e-07
 0.000000e+00
 0.000000e+00
 -4.985450e-06
 1.497140e-05
 -3.832343e-07
 -1.822161e-05
 -3.388949e-06
 -1.959538e-05
 3.089529e-06
 -1.820615e-05
 -3.400230e-06
 -2.962855e-06
 1.568447e-08
 -1.527912e-06
 -1.566386e-06
 -1.838398e-05
 -2.079743e-06
 -1.794397e-06
 1.407664e-05
 4.589984e-07
 1.836442e-06
 8.441198e-07
 -1.732711e-05
 -1.732652e-06
 2.098123e-05
 -1.326498e-05
 1.499789e-05
 -3.098711e-06
 -3.359304e-05
 -3.904574e-09
 -1.414386e-06
 8.233874e-08
 9.403131e-07
 -1.406756e-06
 -1.764238e-06
 3.376221e-05
 1.777443e-05
 -1.437698e-05
 1.271486e-06
 3.280431e-05
 -1.879984e-05
 1.853404e-05
 -8.368905e-07
 1.747500e-05
 1.568687e-06
 1.987604e-05
 2.491123e-06
 6.128028e-07
 -8.753433e-07
 -1.758149e-05
 -1.297163e-08
 0.000000e+00
 0.000000e+00
 -1.508259e-06
 -3.415083e-06
 -4.013881e-06
 -5.371390e-07
 -1.707223e-06
 1.573566e-05
 -6.686521e-07
 -1.863037e-05
 1.464510e-06
 -3.186383e-07
 1.455993e-05
 -1.987128e-05
 1.509956e-05
 -2.047271e-05
 -2.962949e-07
 -1.847866e-05
 1.913460e-06
 5.334947e-05
 -8.012578e-07
 1.640637e-05
 7.399070e-07
 1.303652e-06
 1.641138e-05
 -1.675228e-05
 -1.846727e-05
 -4.012431e-06
 1.791013e-05
 -1.499520e-05
 -4.212774e-07
 4.535771e-07
 4.852285e-06
 2.125084e-05
 1.574008e-05
 -1.540116e-06
 -3.843621e-06
 -8.987195e-07
 3.947181e-06
 -1.180259e-06
 -1.438919e-06
 1.011510e-06
 -1.220997e-06
 9.416954e-08
 2.127844e-07
 7.956931e-07
 -1.648058e-05
 1.433731e-06
 -1.534439e-06
 2.120239e-07
 1.213619e-06
 0.000000e+00
 0.000000e+00
 -2.013003e-05
 -2.681008e-06
 -3.209292e-06
 -2.500752e-06
 -1.465411e-05
 1.755143e-05
 -2.653915e-06
 1.838011e-05
 2.064457e-05
 5.644309e-07
 -3.136839e-06
 1.336916e-05
 -2.907663e-06
 -3.027191e-06
 1.686459e-05
 -2.209191e-07
 4.065797e-05
 -1.609617e-05
 -3.981812e-06
 -1.673981e-06
 -1.335239e-06
 -1.966337e-05
 -9.335526e-07
 -2.174195e-06
 -1.844424e-05
 1.936998e-05
 -2.324064e-07
 -1.732395e-06
 2.325589e-06
 2.108343e-05
 2.066626e-05
 -3.429061e-05
 -3.607207e-05
 1.423899e-05
 -2.033104e-05
 -3.848205e-06
 -1.670278e-05
 -1.642774e-05
 8.665398e-08
 -1.649457e-05
 -1.071271e-06
 9.421850e-07
 9.202926e-07
 -8.862399e-07
 4.576809e-08
 -1.661284e-05
 -1.776002e-05
 1.785304e-08
 -1.724005e-05
 0.000000e+00
 0.000000e+00
 -1.650920e-06
 1.500854e-05
 -3.630318e-06
 1.522834e-05
 1.619184e-05
 -3.498359e-05
 -7.303194e-07
 -1.833026e-05
 -1.658348e-05
 -3.596494e-05
 -1.971561e-05
 -2.086022e-05
 -2.123409e-06
 -2.215322e-07
 -2.107754e-06
 7.399965e-07
 1.860330e-05
 -1.925016e-05
 2.592038e-07
 -1.893091e-06
 -3.795722e-06
 -1.744903e-05
 3.620027e-05
 -1.803640e-05
 1.820428e-05
 1.885181e-05
 -1.565215e-06
 -4.223057e-07
 1.939242e-05
 2.353686e-06
 -2.035127e-05
 -2.007497e-05
 4.199716e-06
 -1.812981e-05
 -7.024326e-06
 -1.914348e-05
 3.576071e-05
 -1.472762e-05
 2.077221e-05
 9.855188e-07
 4.466427e-07
 1.512368e-05
 -1.752889e-05
 1.432963e-06
 -4.030603e-08
 -2.500468e-06
 8.907304e-08
 1.149073e-06
 1.446862e-07
 0.000000e+00
 0.000000e+00
 -2.654445e-06
 -2.566988e-06
 1.494824e-05
 1.473905e-05
 -5.883994e-06
 1.355387e-05
 -2.469851e-07
 -8.994919e-07
 1.581725e-05
 -3.504778e-05
 2.172598e-06
 4.596493e-07
 1.537505e-05
 -1.797902e-05
 -3.131391e-07
 1.912573e-05
 1.557691e-07
 -7.903493e-07
 2.761014e-06
 -1.799237e-06
 -4.766835e-06
 1.733225e-05
 -1.723857e-05
 -1.859103e-06
 -1.476330e-05
 -2.515822e-06
 -2.016339e-05
 1.439107e-06
 2.821769e-06
 -2.090097e-06
 -2.004448e-05
 -8.300766e-07
 -1.846006e-05
 -3.417634e-05
 -1.845392e-08
 3.295681e-05
 -5.305423e-07
 1.117741e-06
 4.369319e-06
 -1.727337e-05
 6.887036e-07
 5.187428e-07
 3.275455e-05
 2.088149e-06
 -1.258860e-06
 -1.960613e-05
 1.781125e-05
 -1.500735e-07
 -2.358734e-07
 0.000000e+00
 0.000000e+00
 -4.557348e-06
 1.450358e-05
 -2.891493e-06
 -5.043344e-06
 -6.052587e-06
 -4.943358e-06
 -3.266432e-06
 -1.313025e-06
 -2.111754e-05
 -2.620267e-06
 -1.449092e-05
 -1.859062e-05
 -1.936433e-05
 1.486853e-05
 -1.565387e-05
 1.814323e-05
 -1.906382e-05
 -5.171147e-07
 -1.820371e-05
 -3.431632e-05
 1.116412e-06
 1.524027e-05
 -3.352707e-06
 -1.975681e-06
 6.552254e-07
 -1.704413e-05
 1.486531e-05
 6.200295e-07
 4.985334e-07
 -3.640919e-05
 -3.953950e-07
 -1.875852e-05
 -3.202456e-06
 1.298636e-06
 -1.209430e-05
 1.958179e-06
 3.343127e-05
 1.740258e-05
 -3.309896e-07
 -1.674979e-05
 2.302962e-06
 2.101431e-06
 -1.668600e-05
 1.453162e-05
 -3.715627e-05
 1.771690e-05
 2.076293e-06
 -2.277259e-06
 -1.100267e-06
 0.000000e+00
 0.000000e+00
 -6.034379e-06
 -5.172305e-06
 -5.435379e-06
 -4.055319e-06
 -4.787702e-06
 1.484424e-05
 1.323515e-05
 -4.754388e-06
 -1.581171e-06
 -2.860275e-06
 -1.414599e-06
 -1.389184e-05
 3.787094e-05
 -1.470924e-06
 3.397700e-05
 1.377576e-06
 1.506910e-05
 -2.393245e-06
 -3.190355e-06
 -5.402851e-07
 -1.425625e-05
 -1.693459e-05
 -2.411816e-06
 -1.716163e-06
 1.582438e-05
 -1.730280e-05
 -4.213136e-07
 1.538754e-05
 -1.931771e-06
 -1.692200e-07
 4.286582e-07
 -1.901769e-05
 -8.120026e-07
 -2.263876e-06
 3.044434e-06
 6.466293e-06
 1.961148e-06
 -2.580806e-06
 -2.630607e-06
 5.063761e-08
 2.746592e-06
 1.154658e-07
 -8.325819e-07
 -1.816241e-05
 -3.645092e-07
 8.876926e-07
 -8.227933e-07
 -1.681801e-05
 1.750382e-05
 0.000000e+00
 0.000000e+00
 -8.678964e-06
 -7.390030e-06
 -4.893446e-06
 -2.727529e-06
 -1.959697e-06
 1.502031e-05
 -2.343411e-05
 1.238183e-05
 -4.827465e-06
 -2.083329e-05
 1.652772e-05
 3.446777e-06
 -1.159255e-05
 -1.194006e-06
 1.510240e-05
 -4.698444e-06
 -1.863006e-05
 -3.374135e-06
 -3.083969e-06
 -1.214682e-06
 1.710933e-05
 2.162218e-06
 -6.691285e-07
 -1.306105e-06
 -2.313100e-06
 -1.312443e-06
 2.550651e-06
 1.564079e-05
 -3.294579e-06
 -2.342831e-06
 -1.917241e-05
 -5.641064e-07
 2.907000e-06
 1.809202e-05
 3.561989e-05
 1.127812e-06
 1.669369e-06
 2.898710e-07
 -1.977731e-06
 8.007478e-07
 -2.315944e-06
 -1.766636e-05
 1.945314e-06
 1.886554e-05
 -1.516253e-07
 -9.071135e-07
 1.716217e-05
 7.790494e-07
 1.436935e-06
 0.000000e+00
 0.000000e+00
 -8.533328e-06
 -6.409355e-06
 1.198543e-05
 -2.961885e-06
 -8.315484e-07
 -2.881756e-06
 -4.317697e-06
 1.549790e-05
 -3.794094e-06
 3.337436e-05
 1.710004e-05
 1.573654e-05
 -7.367852e-08
 -3.159153e-05
 1.755603e-05
 -2.162712e-06
 3.251347e-05
 -1.912937e-05
 1.440496e-05
 -1.119636e-06
 1.195777e-07
 -1.462340e-06
 -1.821358e-05
 1.664100e-05
 -7.582058e-07
 1.632546e-05
 2.065427e-06
 1.046313e-06
 1.284376e-05
 -2.329337e-06
 1.666491e-05
 4.882251e-07
 1.994913e-05
 -1.522683e-05
 1.718078e-05
 -1.024653e-06
 1.361295e-05
 -1.827390e-05
 2.506211e-06
 1.738456e-05
 -1.750667e-05
 5.346656e-05
 1.919837e-06
 1.742741e-07
 -1.863417e-05
 1.739563e-05
 -1.162899e-06
 -1.433636e-06
 3.397196e-07
 0.000000e+00
 0.000000e+00
 -2.026692e-05
 -3.522223e-06
 -2.840487e-06
 1.343565e-05
 -1.992078e-06
 -1.511074e-06
 -3.558666e-07
 1.661700e-05
 -2.472643e-06
 -2.002704e-06
 -5.286903e-06
 -1.683524e-06
 -9.093570e-07
 1.721813e-05
 -1.679035e-05
 -1.769712e-06
 -3.817494e-05
 -3.333336e-06
 -1.854220e-05
 1.685532e-05
 -2.032439e-07
 -1.041078e-06
 -9.256220e-07
 -9.223640e-07
 -1.377046e-07
 4.808377e-07
 1.617349e-05
 -1.871763e-05
 -1.849935e-05
 1.626935e-05
 -2.102782e-05
 -1.898834e-06
 2.119994e-06
 4.700011e-06
 1.846208e-05
 -3.292890e-06
 -1.825900e-05
 5.102024e-05
 2.538912e-06
 1.826008e-06
 2.060748e-05
 2.234475e-09
 -4.568504e-06
 -1.041904e-06
 9.897583e-07
 1.012882e-07
 -5.176205e-06
 -8.563449e-07
 1.506289e-06
 0.000000e+00
 0.000000e+00
 -1.767903e-05
 -2.490778e-06
 1.459781e-07
 2.706281e-06
 1.526588e-05
 -3.806513e-06
 -2.526604e-06
 -1.980681e-05
 -1.930521e-05
 -1.244951e-06
 9.657321e-07
 3.304449e-05
 -1.866829e-05
 -1.921381e-05
 -2.098046e-06
 -2.297803e-06
 -3.995830e-06
 5.994280e-07
 1.398984e-06
 1.816857e-05
 -2.036435e-05
 -1.929340e-06
 -1.594768e-05
 1.857041e-05
 1.571318e-05
 1.552571e-07
 -8.029774e-07
 -3.659817e-06
 1.963189e-05
 6.798071e-07
 -2.380140e-06
 3.431701e-05
 1.669979e-05
 2.521089e-06
 -3.300147e-05
 1.645962e-05
 1.963106e-05
 1.273612e-06
 1.386937e-05
 3.506660e-06
 1.500802e-06
 -1.883103e-05
 1.726606e-05
 -2.098114e-06
 -2.712794e-06
 -1.819297e-05
 -1.362537e-06
 3.432886e-05
 6.575965e-07
 0.000000e+00
 0.000000e+00
 7.263649e-08
 -1.765138e-05
 3.387915e-05
 -1.602583e-05
 -3.620771e-05
 -2.088106e-05
 -3.129861e-06
 -4.694071e-06
 -1.375672e-06
 -1.725751e-05
 -1.198355e-06
 -5.516540e-05
 -6.009681e-06
 -3.471500e-05
 4.152759e-06
 -1.943087e-05
 -3.465694e-06
 1.880669e-05
 1.498694e-06
 -2.080298e-06
 7.127912e-07
 1.698386e-05
 1.497296e-05
 -1.339443e-05
 -1.796235e-06
 1.593258e-05
 2.377673e-07
 -1.215466e-06
 1.664186e-05
 -1.851522e-05
 1.457967e-06
 6.673936e-07
 1.477065e-05
 1.477883e-05
 2.360438e-06
 3.738356e-06
 -8.379371e-07
 -5.644394e-08
 8.400452e-07
 1.612733e-05
 -3.631393e-05
 3.504370e-07
 -1.699048e-05
 -1.903712e-05
 -9.566702e-07
 1.842052e-05
 9.977677e-07
 1.642067e-05
 -1.854912e-06
 0.000000e+00
 0.000000e+00
 2.393716e-06
 -1.514305e-05
 1.683985e-05
 -5.723880e-06
 -1.888365e-05
 4.768616e-06
 1.191766e-06
 -3.612649e-06
 1.345860e-05
 -2.489594e-06
 -2.534998e-06
 1.602499e-05
 1.983777e-06
 3.454370e-05
 5.907602e-07
 -3.486428e-05
 2.028570e-05
 1.625270e-05
 -1.942893e-05
 1.834075e-06
 1.876516e-05
 -3.370163e-05
 1.617168e-05
 3.709944e-05
 -1.587868e-05
 3.209290e-05
 -1.897192e-05
 -1.935213e-06
 -2.638018e-06
 3.663232e-07
 9.980400e-07
 7.158981e-07
 4.840726e-07
 -2.661334e-06
 -1.569167e-06
 -1.656348e-05
 -1.345444e-07
 1.911379e-07
 4.711420e-07
 -1.981609e-05
 5.052372e-07
 1.593268e-06
 -1.761312e-06
 2.254010e-06
 3.464005e-06
 3.188683e-08
 -1.933164e-05
 1.719952e-05
 -9.015861e-07
 0.000000e+00
 0.000000e+00
 5.769386e-06
 1.896492e-06
 -6.636053e-07
 -4.983391e-06
 -5.106700e-06
 -3.738620e-08
 -5.074211e-05
 -2.135480e-05
 -1.974464e-05
 -2.980347e-07
 -1.778796e-06
 -1.045319e-06
 7.010128e-07
 -1.793881e-05
 -4.319702e-06
 1.664321e-08
 2.998165e-06
 -1.819543e-05
 1.481748e-05
 1.111973e-06
 -1.631908e-05
 -1.650301e-06
 -1.364751e-05
 -1.565349e-06
 -5.387335e-05
 6.959562e-07
 -3.155257e-06
 -1.797895e-05
 1.412215e-05
 -1.645010e-07
 -1.528338e-05
 1.894588e-05
 -1.008833e-06
 -3.642847e-06
 -2.052482e-06
 1.909755e-06
 4.316140e-06
 1.829400e-05
 -3.125421e-06
 -2.300711e-06
 -2.679130e-07
 -3.318696e-05
 9.747502e-07
 -1.345447e-06
 -1.656124e-05
 -1.616312e-05
 1.598792e-06
 1.871064e-05