<VTKFile type="UnstructuredGrid"  version="0.1"   >
<UnstructuredGrid>  
<Piece  NumberOfPoints="     2601"  NumberOfCells="     5000">  
<Points>  
<DataArray  type="Float64"  NumberOfComponents="3"  format="ascii">  
 0.000000 0.000000 0.000000 
 0.020000 0.000000 0.000000 
 0.040000 0.000000 0.000000 
 0.060000 0.000000 0.000000 
 0.080000 0.000000 0.000000 
 0.100000 0.000000 0.000000 
 0.120000 0.000000 0.000000 
 0.140000 0.000000 0.000000 
 0.160000 0.000000 0.000000 
 0.180000 0.000000 0.000000 
 0.200000 0.000000 0.000000 
 0.220000 0.000000 0.000000 
 0.240000 0.000000 0.000000 
 0.260000 0.000000 0.000000 
 0.280000 0.000000 0.000000 
 0.300000 0.000000 0.000000 
 0.320000 0.000000 0.000000 
 0.340000 0.000000 0.000000 
 0.360000 0.000000 0.000000 
 0.380000 0.000000 0.000000 
 0.400000 0.000000 0.000000 
 0.420000 0.000000 0.000000 
 0.440000 0.000000 0.000000 
 0.460000 0.000000 0.000000 
 0.480000 0.000000 0.000000 
 0.500000 0.000000 0.000000 
 0.520000 0.000000 0.000000 
 0.540000 0.000000 0.000000 
 0.560000 0.000000 0.000000 
 0.580000 0.000000 0.000000 
 0.600000 0.000000 0.000000 
 0.620000 0.000000 0.000000 
 0.640000 0.000000 0.000000 
 0.660000 0.000000 0.000000 
 0.680000 0.000000 0.000000 
 0.700000 0.000000 0.000000 
 0.720000 0.000000 0.000000 
 0.740000 0.000000 0.000000 
 0.760000 0.000000 0.000000 
 0.780000 0.000000 0.000000 
 0.800000 0.000000 0.000000 
 0.820000 0.000000 0.000000 
 0.840000 0.000000 0.000000 
 0.860000 0.000000 0.000000 
 0.880000 0.000000 0.000000 
 0.900000 0.000000 0.000000 
 0.920000 0.000000 0.000000 
 0.940000 0.000000 0.000000 
 0.960000 0.000000 0.000000 
 0.980000 0.000000 0.000000 
 1.000000 0.000000 0.000000 
 0.000000 0.020000 0.000000 
 0.020000 0.020000 0.000000 
 0.040000 0.020000 0.000000 
 0.060000 0.020000 0.000000 
 0.080000 0.020000 0.000000 
 0.100000 0.020000 0.000000 
 0.120000 0.020000 0.000000 
 0.140000 0.020000 0.000000 
 0.160000 0.020000 0.000000 
 0.180000 0.020000 0.000000 
 0.200000 0.020000 0.000000 
 0.220000 0.020000 0.000000 
 0.240000 0.020000 0.000000 
 0.260000 0.020000 0.000000 
 0.280000 0.020000 0.000000 
 0.300000 0.020000 0.000000 
 0.320000 0.020000 0.000000 
 0.340000 0.020000 0.000000 
 0.360000 0.020000 0.000000 
 0.380000 0.020000 0.000000 
 0.400000 0.020000 0.000000 
 0.420000 0.020000 0.000000 
 0.440000 0.020000 0.000000 
 0.460000 0.020000 0.000000 
 0.480000 0.020000 0.000000 
 0.500000 0.020000 0.000000 
 0.520000 0.020000 0.000000 
 0.540000 0.020000 0.000000 
 0.560000 0.020000 0.000000 
 0.580000 0.020000 0.000000 
 0.600000 0.020000 0.000000 
 0.620000 0.020000 0.000000 
 0.640000 0.020000 0.000000 
 0.660000 0.020000 0.000000 
 0.680000 0.020000 0.000000 
 0.700000 0.020000 0.000000 
 0.720000 0.020000 0.000000 
 0.740000 0.020000 0.000000 
 0.760000 0.020000 0.000000 
 0.780000 0.020000 0.000000 
 0.800000 0.020000 0.000000 
 0.820000 0.020000 0.000000 
 0.840000 0.020000 0.000000 
 0.860000 0.020000 0.000000 
 0.880000 0.020000 0.000000 
 0.900000 0.020000 0.000000 
 0.920000 0.020000 0.000000 
 0.940000 0.020000 0.000000 
 0.960000 0.020000 0.000000 
 0.980000 0.020000 0.000000 
 1.000000 0.020000 0.000000 
 0.000000 0.040000 0.000000 
 0.020000 0.040000 0.000000 
 0.040000 0.040000 0.000000 
 0.060000 0.040000 0.000000 
 0.080000 0.040000 0.000000 
 0.100000 0.040000 0.000000 
 0.120000 0.040000 0.000000 
 0.140000 0.040000 0.000000 
 0.160000 0.040000 0.000000 
 0.180000 0.040000 0.000000 
 0.200000 0.040000 0.000000 
 0.220000 0.040000 0.000000 
 0.240000 0.040000 0.000000 
 0.260000 0.040000 0.000000 
 0.280000 0.040000 0.000000 
 0.300000 0.040000 0.000000 
 0.320000 0.040000 0.000000 
 0.340000 0.040000 0.000000 
 0.360000 0.040000 0.000000 
 0.380000 0.040000 0.000000 
 0.400000 0.040000 0.000000 
 0.420000 0.040000 0.000000 
 0.440000 0.040000 0.000000 
 0.460000 0.040000 0.000000 
 0.480000 0.040000 0.000000 
 0.500000 0.040000 0.000000 
 0.520000 0.040000 0.000000 
 0.540000 0.040000 0.000000 
 0.560000 0.040000 0.000000 
 0.580000 0.040000 0.000000 
 0.600000 0.040000 0.000000 
 0.620000 0.040000 0.000000 
 0.640000 0.040000 0.000000 
 0.660000 0.040000 0.000000 
 0.680000 0.040000 0.000000 
 0.700000 0.040000 0.000000 
 0.720000 0.040000 0.000000 
 0.740000 0.040000 0.000000 
 0.760000 0.040000 0.000000 
 0.780000 0.040000 0.000000 
 0.800000 0.040000 0.000000 
 0.820000 0.040000 0.000000 
 0.840000 0.040000 0.000000 
 0.860000 0.040000 0.000000 
 0.880000 0.040000 0.000000 
 0.900000 0.040000 0.000000 
 0.920000 0.040000 0.000000 
 0.940000 0.040000 0.000000 
 0.960000 0.040000 0.000000 
 0.980000 0.040000 0.000000 
 1.000000 0.040000 0.000000 
 0.000000 0.060000 0.000000 
 0.020000 0.060000 0.000000 
 0.040000 0.060000 0.000000 
 0.060000 0.060000 0.000000 
 0.080000 0.060000 0.000000 
 0.100000 0.060000 0.000000 
 0.120000 0.060000 0.000000 
 0.140000 0.060000 0.000000 
 0.160000 0.060000 0.000000 
 0.180000 0.060000 0.000000 
 0.200000 0.060000 0.000000 
 0.220000 0.060000 0.000000 
 0.240000 0.060000 0.000000 
 0.260000 0.060000 0.000000 
 0.280000 0.060000 0.000000 
 0.300000 0.060000 0.000000 
 0.320000 0.060000 0.000000 
 0.340000 0.060000 0.000000 
 0.360000 0.060000 0.000000 
 0.380000 0.060000 0.000000 
 0.400000 0.060000 0.000000 
 0.420000 0.060000 0.000000 
 0.440000 0.060000 0.000000 
 0.460000 0.060000 0.000000 
 0.480000 0.060000 0.000000 
 0.500000 0.060000 0.000000 
 0.520000 0.060000 0.000000 
 0.540000 0.060000 0.000000 
 0.560000 0.060000 0.000000 
 0.580000 0.060000 0.000000 
 0.600000 0.060000 0.000000 
 0.620000 0.060000 0.000000 
 0.640000 0.060000 0.000000 
 0.660000 0.060000 0.000000 
 0.680000 0.060000 0.000000 
 0.700000 0.060000 0.000000 
 0.720000 0.060000 0.000000 
 0.740000 0.060000 0.000000 
 0.760000 0.060000 0.000000 
 0.780000 0.060000 0.000000 
 0.800000 0.060000 0.000000 
 0.820000 0.060000 0.000000 
 0.840000 0.060000 0.000000 
 0.860000 0.060000 0.000000 
 0.880000 0.060000 0.000000 
 0.900000 0.060000 0.000000 
 0.920000 0.060000 0.000000 
 0.940000 0.060000 0.000000 
 0.960000 0.060000 0.000000 
 0.980000 0.060000 0.000000 
 1.000000 0.060000 0.000000 
 0.000000 0.080000 0.000000 
 0.020000 0.080000 0.000000 
 0.040000 0.080000 0.000000 
 0.060000 0.080000 0.000000 
 0.080000 0.080000 0.000000 
 0.100000 0.080000 0.000000 
 0.120000 0.080000 0.000000 
 0.140000 0.080000 0.000000 
 0.160000 0.080000 0.000000 
 0.180000 0.080000 0.000000 
 0.200000 0.080000 0.000000 
 0.220000 0.080000 0.000000 
 0.240000 0.080000 0.000000 
 0.260000 0.080000 0.000000 
 0.280000 0.080000 0.000000 
 0.300000 0.080000 0.000000 
 0.320000 0.080000 0.000000 
 0.340000 0.080000 0.000000 
 0.360000 0.080000 0.000000 
 0.380000 0.080000 0.000000 
 0.400000 0.080000 0.000000 
 0.420000 0.080000 0.000000 
 0.440000 0.080000 0.000000 
 0.460000 0.080000 0.000000 
 0.480000 0.080000 0.000000 
 0.500000 0.080000 0.000000 
 0.520000 0.080000 0.000000 
 0.540000 0.080000 0.000000 
 0.560000 0.080000 0.000000 
 0.580000 0.080000 0.000000 
 0.600000 0.080000 0.000000 
 0.620000 0.080000 0.000000 
 0.640000 0.080000 0.000000 
 0.660000 0.080000 0.000000 
 0.680000 0.080000 0.000000 
 0.700000 0.080000 0.000000 
 0.720000 0.080000 0.000000 
 0.740000 0.080000 0.000000 
 0.760000 0.080000 0.000000 
 0.780000 0.080000 0.000000 
 0.800000 0.080000 0.000000 
 0.820000 0.080000 0.000000 
 0.840000 0.080000 0.000000 
 0.860000 0.080000 0.000000 
 0.880000 0.080000 0.000000 
 0.900000 0.080000 0.000000 
 0.920000 0.080000 0.000000 
 0.940000 0.080000 0.000000 
 0.960000 0.080000 0.000000 
 0.980000 0.080000 0.000000 
 1.000000 0.080000 0.000000 
 0.000000 0.100000 0.000000 
 0.020000 0.100000 0.000000 
 0.040000 0.100000 0.000000 
 0.060000 0.100000 0.000000 
 0.080000 0.100000 0.000000 
 0.100000 0.100000 0.000000 
 0.120000 0.100000 0.000000 
 0.140000 0.100000 0.000000 
 0.160000 0.100000 0.000000 
 0.180000 0.100000 0.000000 
 0.200000 0.100000 0.000000 
 0.220000 0.100000 0.000000 
 0.240000 0.100000 0.000000 
 0.260000 0.100000 0.000000 
 0.280000 0.100000 0.000000 
 0.300000 0.100000 0.000000 
 0.320000 0.100000 0.000000 
 0.340000 0.100000 0.000000 
 0.360000 0.100000 0.000000 
 0.380000 0.100000 0.000000 
 0.400000 0.100000 0.000000 
 0.420000 0.100000 0.000000 
 0.440000 0.100000 0.000000 
 0.460000 0.100000 0.000000 
 0.480000 0.100000 0.000000 
 0.500000 0.100000 0.000000 
 0.520000 0.100000 0.000000 
 0.540000 0.100000 0.000000 
 0.560000 0.100000 0.000000 
 0.580000 0.100000 0.000000 
 0.600000 0.100000 0.000000 
 0.620000 0.100000 0.000000 
 0.640000 0.100000 0.000000 
 0.660000 0.100000 0.000000 
 0.680000 0.100000 0.000000 
 0.700000 0.100000 0.000000 
 0.720000 0.100000 0.000000 
 0.740000 0.100000 0.000000 
 0.760000 0.100000 0.000000 
 0.780000 0.100000 0.000000 
 0.800000 0.100000 0.000000 
 0.820000 0.100000 0.000000 
 0.840000 0.100000 0.000000 
 0.860000 0.100000 0.000000 
 0.880000 0.100000 0.000000 
 0.900000 0.100000 0.000000 
 0.920000 0.100000 0.000000 
 0.940000 0.100000 0.000000 
 0.960000 0.100000 0.000000 
 0.980000 0.100000 0.000000 
 1.000000 0.100000 0.000000 
 0.000000 0.120000 0.000000 
 0.020000 0.120000 0.000000 
 0.040000 0.120000 0.000000 
 0.060000 0.120000 0.000000 
 0.080000 0.120000 0.000000 
 0.100000 0.120000 0.000000 
 0.120000 0.120000 0.000000 
 0.140000 0.120000 0.000000 
 0.160000 0.120000 0.000000 
 0.180000 0.120000 0.000000 
 0.200000 0.120000 0.000000 
 0.220000 0.120000 0.000000 
 0.240000 0.120000 0.000000 
 0.260000 0.120000 0.000000 
 0.280000 0.120000 0.000000 
 0.300000 0.120000 0.000000 
 0.320000 0.120000 0.000000 
 0.340000 0.120000 0.000000 
 0.360000 0.120000 0.000000 
 0.380000 0.120000 0.000000 
 0.400000 0.120000 0.000000 
 0.420000 0.120000 0.000000 
 0.440000 0.120000 0.000000 
 0.460000 0.120000 0.000000 
 0.480000 0.120000 0.000000 
 0.500000 0.120000 0.000000 
 0.520000 0.120000 0.000000 
 0.540000 0.120000 0.000000 
 0.560000 0.120000 0.000000 
 0.580000 0.120000 0.000000 
 0.600000 0.120000 0.000000 
[...]
<PointData  Scalars="U"> 
<DataArray  type="Float64"  Name="U"  format="ascii"> 
 0.000000e+00
 0.000000e+00
 0.000000e+00
 0.000000e+00
 0.000000e+00
 0.000000e+00
 0.000000e+00
 0.000000e+00
 0.000000e+00
 0.000000e+00
 0.000000e+00
 0.000000e+00
 0.000000e+00
 0.000000e+00
 0.000000e+00
 0.000000e+00
 0.000000e+00
 0.000000e+00
 0.000000e+00
 0.000000e+00
 0.000000e+00
 0.000000e+00
 0.000000e+00
 0.000000e+00
 0.000000e+00
 0.000000e+00
 0.000000e+00
 0.000000e+00
 0.000000e+00
 0.000000e+00
 0.000000e+00
 0.000000e+00
 0.000000e+00
 0.000000e+00
 0.000000e+00
 0.000000e+00
 0.000000e+00
 0.000000e+00
 0.000000e+00
 0.000000e+00
 0.000000e+00
 0.000000e+00
 0.000000e+00
 0.000000e+00
 0.000000e+00
 0.000000e+00
 0.000000e+00
 0.000000e+00
 0.000000e+00
 0.000000e+00
 0.000000e+00
 0.000000e+00
 2.145503e-08
 3.801802e-08
 4.679148e-08
 4.765494e-08
 4.270565e-08
 3.496702e-08
 2.694599e-08
 1.956242e-08
 1.199434e-08
 2.365988e-09
 -1.172803e-08
 -3.353084e-08
 -6.620321e-08
 -1.002646e-07
 -9.002841e-08
 -6.458875e-09
 7.150309e-08
 7.829410e-08
 5.006966e-08
 2.328268e-08
 4.809902e-09
 -7.454403e-09
 -1.550679e-08
 -2.087722e-08
 -2.526960e-08
 -3.053134e-08
 -3.795854e-08
 -4.628950e-08
 -4.788102e-08
 -2.980611e-08
 8.070424e-09
 4.016676e-08
 4.275728e-08
 1.669968e-08
 -2.534850e-08
 -6.742551e-08
 -9.228497e-08
 -9.860999e-08
 -1.014967e-07
 -7.904440e-08
 -4.912549e-10
 6.695288e-08
 6.469525e-08
 3.092852e-08
 2.251276e-09
 -1.468725e-08
 -2.184770e-08
 -2.048687e-08
 -1.138520e-08
 0.000000e+00
 0.000000e+00
 4.817477e-08
 8.432940e-08
 1.018819e-07
 1.012808e-07
 8.810524e-08
 6.992343e-08
 5.293482e-08
 3.913934e-08
 2.599496e-08
 9.053932e-09
 -1.595615e-08
 -5.513057e-08
 -1.224134e-07
 -2.440981e-07
 -2.815603e-07
 -3.334831e-09
 2.398234e-07
 1.867622e-07
 9.271867e-08
 3.744926e-08
 3.619610e-09
 -1.904276e-08
 -3.374908e-08
 -4.277027e-08
 -4.960866e-08
 -5.855289e-08
 -7.389397e-08
 -9.775866e-08
 -1.175031e-07
 -8.546679e-08
 2.249056e-08
 1.154704e-07
 1.156522e-07
 4.960068e-08
 -4.969638e-08
 -1.548819e-07
 -2.087525e-07
 -1.916653e-07
 -2.216591e-07
 -2.410158e-07
 1.278623e-08
 2.284118e-07
 1.558080e-07
 5.073564e-08
 -7.966303e-09
 -3.880996e-08
 -5.215324e-08
 -4.883461e-08
 -2.931410e-08
 0.000000e+00
 0.000000e+00
 8.795479e-08
 1.505206e-07
 1.760054e-07
 1.678164e-07
 1.382789e-07
 1.029114e-07
 7.486412e-08
 5.776397e-08
 4.395761e-08
 2.362602e-08
 -7.268545e-09
 -5.129131e-08
 -1.246445e-07
 -3.028766e-07
 -1.372625e-06
 -4.792791e-08
 8.756151e-07
 2.503780e-07
 9.319996e-08
 3.249407e-08
 -7.554385e-09
 -3.857823e-08
 -5.795551e-08
 -6.697034e-08
 -7.185229e-08
 -8.001411e-08
 -9.978501e-08
 -1.448242e-07
 -2.395055e-07
 -2.466953e-07
 5.603640e-08
 3.097041e-07
 2.504895e-07
 1.132017e-07
 -5.931354e-08
 -2.966306e-07
 -4.306698e-07
 -2.343769e-07
 -1.552611e-07
 -1.263394e-06
 -2.448740e-08
 8.482073e-07
 1.935028e-07
 2.068914e-08
 -4.357394e-08
 -7.866854e-08
 -9.912753e-08
 -9.474291e-08
 -5.754327e-08
 0.000000e+00
 0.000000e+00
 1.558642e-07
 2.565283e-07
 2.852194e-07
 2.562170e-07
 1.939940e-07
 1.268477e-07
 8.353811e-08
 7.277854e-08
 6.985301e-08
 4.922852e-08
 1.274246e-08
 -2.500687e-08
 -5.199696e-08
 -5.434193e-08
 -8.539075e-08
 1.738697e-05
 -4.457908e-08
 1.779949e-08
 2.608991e-08
 1.526566e-08
 -2.598877e-08
 -7.094658e-08
 -9.344951e-08
 -9.536190e-08
 -9.083974e-08
 -9.062930e-08
 -1.026618e-07
 -1.431833e-07
 -2.814944e-07
 -1.301632e-06
 5.820699e-08
 9.841980e-07
 3.729551e-07
 2.144686e-07
 4.142727e-09
 -3.795281e-07
 -1.580733e-06
 -2.720150e-07
 6.887170e-07
 5.566096e-08
 1.737935e-05
 -1.072762e-07
 -7.773844e-08
 -8.967906e-08
 -1.002622e-07
 -1.288937e-07
 -1.713684e-07
 -1.782801e-07
 -1.068807e-07
 0.000000e+00
 0.000000e+00
 2.872220e-07
 4.399427e-07
 4.531961e-07
 3.783200e-07
 2.554604e-07
 1.236157e-07
 5.211404e-08
 8.005362e-08
 1.198003e-07
 9.255672e-08
 3.296835e-08
 -9.728093e-09
 -9.702070e-11
 1.403184e-07
 7.769784e-07
 -1.119018e-07
 -1.381469e-06
 -2.444404e-07
 -1.448365e-08
 3.624067e-08
 -4.119227e-08
 -1.322216e-07
 -1.512769e-07
 -1.290566e-07
 -1.048885e-07
 -8.982560e-08
 -8.269531e-08
 -7.340033e-08
 -3.215737e-08
 3.427870e-08
 1.759246e-05
 7.593427e-08
 1.844390e-07
 4.258812e-07
 2.490342e-07
 -2.582425e-07
 -4.904267e-07
 1.713181e-05
 -5.229631e-08
 6.692757e-07
 -2.172041e-07
 -1.493825e-06
 -3.879837e-07
 -1.974287e-07
 -1.365658e-07
 -1.549859e-07
 -2.774678e-07
 -3.638935e-07
 -1.839209e-07
 0.000000e+00
 0.000000e+00
 5.835789e-07
 7.703677e-07
 7.049363e-07
 5.471353e-07
 3.342160e-07
 5.842608e-08
 -1.108281e-07
 7.871115e-08
 2.648933e-07
 1.658607e-07
 3.221433e-08
 -4.185705e-08
 -5.155132e-08
 1.109745e-08
 6.075891e-08
 -1.526252e-07
 -3.548902e-07
 -1.916016e-07
 9.692311e-08
 2.096103e-07
 -4.901105e-08
 -2.938518e-07
 -2.469127e-07
 -1.588156e-07
 -1.085592e-07
 -7.983898e-08
 -6.224280e-08
 -2.773252e-08
 1.214664e-07
 7.926661e-07
 9.153798e-07
 -1.294548e-06
 -5.273901e-07
 1.561806e-06
 1.495591e-06
 -5.855506e-07
 -2.579647e-07
 -3.776066e-07
 -1.444343e-06
 -3.004908e-07
 -3.475578e-07
 -4.876203e-07
 -3.635569e-07
 -2.115677e-07
 -1.038313e-07
 -7.514265e-08
 -2.519758e-07
 -1.398145e-06
 -2.630573e-07
 0.000000e+00
 0.000000e+00
 1.418571e-06
 1.326992e-06
 1.026564e-06
 7.644165e-07
 4.799288e-07
 5.416546e-08
 -1.223658e-06
 -3.437209e-09
 8.699065e-07
 1.915792e-07
 -3.043632e-08
 -1.362639e-07
 -1.782601e-07
 -1.888860e-07
 -2.192322e-07
 -2.892261e-07
 -2.810769e-07
 -9.181340e-08
 2.218803e-07
 1.336854e-06
 8.641261e-09
 -9.205906e-07
 -2.982638e-07
 -1.475530e-07
 -9.355599e-08
 -5.635224e-08
 -4.772056e-08
 -7.332840e-08
 -4.205667e-08
 -2.210999e-07
 -1.731691e-06
 -1.801707e-05
 7.764241e-07
 3.883021e-07
 -1.710331e-05
 -1.713203e-05
 2.442910e-07
 -6.366045e-08
 -3.837540e-07
 -5.010317e-07
 -5.286015e-07
 -3.232419e-07
 -1.725558e-07
 -2.177317e-07
 -4.054356e-09
 2.028427e-07
 1.470361e-07
 2.473084e-08
 1.743490e-05
 0.000000e+00
 0.000000e+00
 3.470645e-06
 1.909524e-06
 1.280576e-06
 9.965795e-07
 7.677712e-07
 3.141578e-07
 -8.993654e-08
 1.734236e-05
 -6.883059e-08
 -5.895782e-08
 -1.821842e-07
 -2.951540e-07
 -3.409262e-07
 -3.687789e-07
 -4.253059e-07
 -5.037015e-07
 -4.385420e-07
 -7.572271e-08
 1.663248e-07
 1.288334e-07
 -1.741968e-05
 4.629144e-09
 -4.749049e-08
 -6.705090e-08
 -7.735205e-08
 -6.148556e-09
 3.016560e-08
 -1.936598e-07
 -3.112792e-07
 5.245572e-07
 -2.488136e-06
 1.625389e-05
 1.575745e-06
 -5.043430e-07
 -3.668700e-07
 1.588548e-06
 1.579338e-06
 2.577119e-07
 -1.128086e-07
 -4.339863e-07
 -1.528595e-06
 -2.148923e-07
 5.562178e-07
 -1.143785e-06
 1.772156e-08
 9.200702e-07
 4.433012e-07
 9.850106e-07
 2.244609e-07
 0.000000e+00
 0.000000e+00
 3.648428e-06
 1.846485e-06
 1.231447e-06
 1.017160e-06
 1.873956e-06
 5.278611e-07
 1.134843e-07
 -2.293760e-07
 -1.346155e-06
 -2.306720e-07
 -3.453750e-07
 -5.486351e-07
 -5.169713e-07
 -5.080825e-07
 -6.083112e-07
 -7.198284e-07
 -1.473800e-06
 5.639969e-10
 6.390754e-07
 -7.420416e-07
 7.926547e-09
 1.331966e-06
 2.641463e-07
 5.858669e-09
 -1.471971e-07
 -9.318439e-08
 9.523949e-07
 -3.266203e-07
 -1.178231e-06
 -3.803093e-07
 -1.712025e-05
 1.714970e-05
 -1.394303e-06
 -1.993725e-07
 1.209778e-06
 5.096874e-07
 -1.069488e-07
 3.383572e-07
 1.024114e-07
 -1.993686e-07
 -1.692313e-07
 1.750525e-05
 6.734868e-08
 1.561704e-08
 1.741292e-05
 -5.358552e-08
 7.104472e-08
 1.993904e-07
 1.463602e-07
 0.000000e+00
 0.000000e+00
 1.110504e-06
 1.181827e-06
 8.497506e-07
 5.651249e-07
 4.433414e-07
 -1.708795e-05
 2.481031e-07
 -1.254955e-07
 -2.803116e-07
 8.224258e-07
 -3.698669e-07
 -1.217048e-06
 -5.815339e-07
 -5.417355e-07
 -6.706956e-07
 -1.456359e-06
 -2.667192e-08
 1.813104e-05
 -2.388557e-07
 -4.799382e-07
 -1.988723e-07
 2.862053e-07
 3.870618e-07
 1.622762e-08
 -4.095497e-07
 -5.900602e-07
 -5.762412e-07
 -1.796538e-05
 -4.688844e-07
 -8.150905e-07
 8.514828e-07
 1.100774e-06
 -1.472145e-06
 -4.521081e-07
 6.391701e-09
 -1.706922e-05
 6.529174e-07
 7.627817e-07
 5.838726e-07
 -9.784901e-07
 4.873438e-07
 6.842170e-07
 -8.797094e-07
 7.319272e-07
 -1.555511e-07
 -1.546523e-06
 -4.739178e-07
 -2.317502e-07
 -8.869852e-08
 0.000000e+00
 0.000000e+00
 5.128846e-07
 6.577086e-07
 3.859819e-07
 1.613465e-08
 -6.610995e-07
 2.121946e-07
 1.188748e-06
 -2.371149e-07
 -4.711889e-07
 -4.274172e-07
 -1.782236e-05
 -2.745201e-07
 -2.246862e-07
 -2.976778e-07
 -1.252783e-06
 2.151001e-07
 1.901610e-05
 -2.305059e-07
 -1.912098e-06
 -9.841019e-07
 -5.115144e-07
 3.934761e-08
 1.392204e-06
 1.955967e-07
 -1.067138e-06
 -1.146595e-06
 -1.803648e-06
 -6.649868e-07
 8.688241e-07
 2.040059e-08
 2.037503e-07
 9.643915e-08
 -3.423124e-07
 -4.712049e-07
 -8.033359e-07
 4.149256e-07
 1.980463e-06
 1.193730e-06
 3.037534e-06
 3.144504e-07
 1.604762e-05
 -2.099332e-07
 1.267882e-07
 3.204193e-07
 -1.716218e-07
 -7.669699e-07
 -7.760353e-07
 -5.908051e-07
 -2.602490e-07
 0.000000e+00
 0.000000e+00
 1.133479e-07
 7.162883e-07
 -1.073577e-07
 -4.085473e-07
 -3.888814e-07
 9.115542e-07
 -1.303658e-07
 -1.127758e-06
 -7.702781e-07
 -1.299130e-06
 -3.802072e-07
 1.054593e-06
 3.458748e-07
 2.752269e-07
 2.620452e-07
 1.946545e-05
 -1.894678e-08
 -1.407424e-06
 -1.302757e-06
 -1.794076e-06
 -8.177147e-07
 -3.971134e-07
 4.017224e-09
 -1.623200e-05
 8.265410e-07
 -1.567562e-06
 -1.825694e-06
 -7.625532e-07
 -1.112233e-07
 1.516136e-07
 1.669134e-07
 -6.990186e-08
 -3.533751e-07
 -2.905358e-07
 -5.180126e-08
 4.852335e-07
 9.850970e-07
 7.771272e-07
 4.210797e-07
 -3.402993e-05
 1.564139e-07
 -1.049758e-06
 3.018018e-07
 1.539064e-06
 -9.612126e-08
 -1.364014e-06
 -8.477000e-07
 -1.660847e-06
 -3.569251e-07
 0.000000e+00
 0.000000e+00
 1.689380e-05
 -8.826289e-07
 -9.245101e-07
 -1.015219e-06
 -9.900229e-07
 -7.316101e-07
 -1.798522e-05
 -4.667337e-07
 -5.361956e-07
 -5.372047e-07
 -3.590961e-07
 -9.943637e-07
 1.377543e-06
 1.053349e-06
 1.501002e-07
 -2.818295e-07
 -1.930995e-05
 -1.138366e-06
 -1.851356e-05
 -8.602076e-07
 -7.518960e-07
 -7.309319e-07
 -1.216601e-06
 -2.763127e-07
 -1.674773e-05
 -1.811748e-05
 1.535442e-07
 -6.639318e-07
 2.602237e-07
 3.449531e-07
 8.486328e-07
 6.762455e-09
 -9.417339e-07
 -1.215630e-07
 2.684431e-07
 5.025972e-07
 1.689158e-06
 1.196091e-06
 -2.181935e-06
 -5.272084e-07
 2.705961e-06
 5.220358e-07
 3.765372e-07
 1.432984e-06
 -1.738675e-05
 -8.755706e-07
 -2.670873e-07
 -1.153856e-07
 1.739635e-05
 0.000000e+00
 0.000000e+00
 -1.196808e-06
 -3.309328e-06
 -1.633417e-06
 -1.767457e-06
 -1.812576e-06
 -1.909525e-06
 -7.408410e-07
 6.994587e-07
 -2.276476e-07
 -1.556918e-07
 3.449230e-08
 -1.058929e-07
 1.724398e-05
 -1.760174e-05
 -2.561150e-07
 -1.413397e-06
 -1.192359e-06
 -6.510198e-07
 -7.254270e-07
 5.217057e-07
 -5.402853e-07
 -7.385443e-07
 -8.480365e-07
 -3.926494e-07
 -1.319520e-06
 -3.820541e-07
 -8.557899e-07
 -1.919868e-05
 -6.294008e-07
 -1.658083e-05
 1.254207e-06
 -1.695290e-05
 -8.021975e-07
 2.268234e-07
 8.907933e-07
 6.723633e-08
 -1.457626e-07
 -1.769852e-05
 -1.768191e-05
 3.470972e-07
 8.621357e-07
 6.316253e-07
 1.295695e-07
 -6.357538e-07
 -1.724795e-05
 1.538990e-06
 5.958109e-07
 1.115507e-06
 2.987389e-07
 0.000000e+00
 0.000000e+00
 -1.926150e-05
 -2.012084e-06
 5.410355e-09
 -3.108206e-06
 -3.162347e-06
 -9.124159e-07
 -9.298080e-07
 -5.389992e-07
 -3.293802e-07
 -5.611136e-08
 1.256722e-06
 5.666939e-07
 -1.796219e-06
 -1.574279e-06
 6.994263e-07
 -8.237701e-07
 -1.257892e-06
 -1.074165e-06
 -7.510582e-07
 -5.267441e-07
 -6.053842e-07
 -7.246810e-07
 -8.212646e-07
 -8.859004e-07
 -1.824831e-05
 -6.943723e-07
 -1.349916e-06
 1.713508e-05
 1.785203e-05
 1.626489e-05
 4.839441e-07
 1.438827e-06
 2.127331e-06
 1.812729e-05
 -1.282136e-07
 -7.629529e-07
 -1.590028e-06
 -1.222368e-06
 1.194861e-06
 1.935858e-06
 1.034240e-06
 6.030029e-07
 4.879336e-08
 -8.181082e-07
 2.603700e-07
 1.860899e-06
 8.405140e-07
 6.345830e-07
 3.520364e-07
 0.000000e+00
 0.000000e+00
 -3.976523e-06
 -1.512297e-06
 -3.790754e-06
 -3.695820e-05
 1.676964e-05
 -1.357545e-06
 -1.360979e-06
 -9.822742e-07
 -6.158344e-07
 -3.947268e-07
 -1.542637e-07
 -1.743916e-05
 -1.187955e-07
 -2.479595e-07
 7.646431e-07
 -8.569614e-07
 -1.976273e-06
 -1.136859e-06
 -7.352560e-07
 -6.752888e-07
 -8.271442e-07
 -7.401377e-07
 -6.568305e-07
 -1.258834e-06
 -3.427214e-07
 8.707296e-07
 -1.597880e-06
 7.635136e-07
 1.016944e-06
 -1.426753e-06
 1.484246e-05
 2.711612e-07
 2.263933e-06
 1.556781e-06
 -1.604196e-06
 -1.852203e-06
 -1.220392e-06
 -5.778333e-07
 -7.132102e-07
 8.863586e-07
 1.566586e-06
 6.160540e-07
 1.789164e-07
 -9.580813e-09
 2.553212e-07
 6.131047e-07
 6.028869e-07
 4.326252e-07
 2.314935e-07
 0.000000e+00
 0.000000e+00
 1.301726e-05
 -4.825589e-06
 -5.587314e-06
 1.617371e-05
 2.069432e-06
 -2.458898e-06
 -2.444240e-06
 -1.287138e-06
 -7.302521e-07
 -6.879056e-07
 -1.201833e-06
 -1.252961e-07
 2.284782e-06
 5.119631e-08
 -1.382381e-07
 -1.851869e-05
 -1.726176e-06
 -8.639552e-07
 -4.034639e-07
 -3.735755e-07
 -1.894990e-06
 -9.213456e-07
 2.055561e-07
 -1.459614e-07
 1.463219e-07
 4.988436e-07
 4.110148e-07
 3.498815e-05
 -3.120547e-07
 2.771287e-07
 -3.313414e-07
 1.621368e-05
 -5.899907e-08
 -2.528994e-07
 -1.827436e-05
 -1.070034e-06
 -1.754501e-06
 7.910468e-08
 1.233798e-06
 1.816113e-05
 4.628277e-07
 3.004780e-07
 1.792850e-07
 1.547497e-07
 2.364186e-07
 3.409673e-07
 3.511597e-07
 2.716747e-07
 1.462417e-07
 0.000000e+00
 0.000000e+00
 -5.253054e-06
 -2.692175e-05
 -3.641729e-06
 -1.183244e-06
 -2.559046e-06
 -1.914735e-05
 -2.675440e-06
 -1.267816e-06
 -2.255100e-07
 -6.946729e-07
 -6.765647e-07
 -5.986415e-07
 -4.035565e-07
 -1.696613e-05
 -1.448177e-06
 -1.892295e-05
 5.300211e-07
 -2.911690e-07
 -3.358989e-08
 2.059545e-06
 -5.520588e-07
 1.548590e-05
 -2.828699e-07
 3.188862e-07
 7.154733e-07
 9.264541e-07
 1.783919e-06
 -3.658713e-07
 -4.259699e-06
 -8.020811e-07
 1.265122e-06
 -6.273972e-08
 -1.703498e-06
 -1.530064e-06
 -7.876540e-07
 -4.692681e-07
 -5.376781e-08
 1.853631e-05
 1.318353e-06
 4.496323e-07
 -1.079654e-06
 -1.563067e-07
 1.029385e-07
 1.872026e-07
 1.845168e-07
 1.954263e-07
 1.921846e-07
 1.511835e-07
 8.208797e-08
 0.000000e+00
 0.000000e+00
 -2.612965e-05
 -5.932279e-06
 3.220866e-05
 -3.982485e-06
 -2.984113e-06
 -9.321572e-07
 -8.589324e-08
 1.628393e-05
 -1.312637e-06
 -1.130904e-06
 2.348020e-07
 -8.791408e-07
 -2.452349e-06
 -1.188527e-06
 -1.789390e-05
 -2.893173e-07
 1.037356e-06
 -1.158769e-07
 -2.974929e-07
 -2.547318e-07
 -3.552400e-05
 2.663884e-09
 -2.207168e-07
 5.820629e-07
 1.938410e-06
 1.720897e-06
 -3.431954e-07
 1.235439e-07
 -9.501832e-07
 1.497128e-05
 -1.300508e-07
 8.118533e-07
 -4.163798e-07
 -9.031959e-07
 -5.958943e-07
 -4.859964e-08
 1.824628e-05
 6.220260e-08
 -9.562176e-07
 1.010522e-06
 -2.224897e-07
 -6.998568e-07
 2.919519e-07
 2.948687e-07
 8.810095e-08
 7.115584e-08
 7.754819e-08
 5.862284e-08
 3.044033e-08
 0.000000e+00
 0.000000e+00
 -2.454794e-05
 -1.071509e-06
 -2.545848e-06
 -4.740992e-06
 1.506235e-05
 -1.631985e-06
 -5.736487e-07
 -1.414778e-06
 -2.855670e-06
 -2.829519e-06
 -1.285561e-06
 -1.779244e-05
 -1.115938e-06
 -1.841124e-06
 -8.555113e-07
 1.645001e-06
 2.527729e-08
 -6.175194e-07
 -4.972773e-07
 -1.828144e-06
 1.534304e-08
 2.029107e-05
 7.438358e-07
 3.070287e-07
 1.090385e-06
 -1.755277e-05
 -1.821411e-05
 1.379279e-07
 -1.658728e-05
 3.497734e-08
 1.639690e-05
 1.114870e-06
 -7.758760e-08
 -1.193282e-06
 -5.526942e-07
 4.433039e-07
 -7.556866e-08
 -1.455120e-06
 -7.633269e-07
 -6.661803e-07
 -1.785058e-05
 4.013384e-07
 1.905519e-06
 6.595936e-07
 -3.696630e-07
 -3.716775e-09
 -1.335604e-08
 -2.635804e-08
 -1.971554e-08
 0.000000e+00
 0.000000e+00
 -1.664357e-06
 -3.977874e-07
 -1.316078e-06
 -9.247174e-07
 -1.498840e-06
 -2.823241e-06
 -1.837403e-06
 -1.621269e-06
 -1.659660e-06
 -1.778782e-06
 1.518412e-05
 -1.110224e-06
 4.146878e-07
 -7.892893e-07
 -1.093863e-06
 -3.107548e-06
 -1.807450e-05
 1.390290e-06
 1.079334e-07
 -4.243376e-07
 -3.719632e-07
 7.154132e-07
 1.029155e-06
 -3.829249e-07
 -2.239707e-06
 -1.909085e-05
 8.971502e-07
 1.241191e-06
 1.068064e-06
 2.421846e-06
 2.340747e-07
 -1.115866e-06
 -1.645143e-05
 -5.967077e-08
 -8.626878e-07
 -1.208176e-06
 -3.814672e-07
 -2.287935e-07
 -1.155714e-06
 -1.677541e-06
 -2.198812e-06
 1.766498e-06
 1.336466e-06
 -1.650854e-05
 1.019943e-06
 2.690500e-08
 -1.200949e-07
 -1.333183e-07
 -8.398614e-08
 0.000000e+00
 0.000000e+00
 -6.197482e-07
 -7.870550e-07
 -8.862179e-07
 -7.037234e-07
 1.247233e-06
 -1.479926e-06
 -3.074804e-06
 -1.516182e-06
 -1.042491e-06
 -7.398793e-07
 -1.878810e-06
 -2.408983e-06
 4.863229e-07
 -3.805152e-07
 -1.973992e-07
 -1.501633e-06
 3.247667e-05
 8.452956e-07
 9.229810e-07
 -9.742556e-07
 4.585052e-09
 1.799471e-05
 -5.607509e-07
 -1.840534e-05
 -8.631827e-07
 -2.156759e-06
 -4.551730e-07
 2.757037e-06
 6.396650e-07
 6.966934e-08
 6.938226e-07
 -9.581524e-07
 -8.791756e-08
 -1.596112e-05
 7.321978e-07
 1.310719e-06
 1.702641e-05
 -1.650409e-06
 -2.192544e-06
 -1.560423e-06
 2.080157e-06
 3.640823e-05
 4.059812e-07
 1.898232e-05
 7.274262e-07
 -5.771946e-07
 -2.487205e-07
 -3.206694e-07
 -1.801400e-07
 0.000000e+00
 0.000000e+00
 -1.906655e-07
 -5.955341e-07
 -9.061837e-07
 -9.541592e-07
 -9.485856e-07
 -3.599560e-05
 -1.061372e-06
 -8.097701e-07
 4.281196e-07
 -1.022917e-06
 -3.358166e-06
 -1.705966e-06
 -2.522503e-07
 -1.782649e-05
 -3.813227e-08
 -1.516808e-05
 -1.740522e-07
 1.453833e-05
 1.066774e-06
 4.390115e-07
 1.760985e-05
 -1.005093e-06
 -3.322742e-06
 -1.392225e-06
 5.616896e-08
 -1.874843e-05
 1.811511e-05
 1.904450e-05
 -1.682031e-05
 1.762124e-05
 -2.613998e-07
 -5.542006e-07
 -9.276508e-07
 4.981323e-07
 3.021654e-06
 1.212757e-06
 -1.828255e-05
 -1.566061e-06
 -3.445011e-07
 1.763236e-05
 1.912085e-05
 -1.736423e-05
 -1.814209e-06
 -1.775868e-05
 -1.836047e-05
 1.197120e-06
 -6.085198e-08
 -9.165400e-07
 -2.335798e-07
 0.000000e+00
 0.000000e+00
 9.780241e-07
 -4.105553e-07
 -1.371569e-06
 -9.924185e-07
 -2.202319e-06
 -8.429252e-07
 1.449119e-06
 -3.308582e-07
 -2.727204e-07
 -1.792576e-05
 -8.815531e-07
 1.503495e-05
 -2.074148e-06
 -3.093429e-07
 9.768266e-09
 -8.423435e-07
 -1.542608e-05
 6.676115e-07
 -9.961187e-07
 -1.631999e-05
 2.485929e-06
 -2.867877e-06
 -3.020721e-06
 -9.278385e-07
 -2.167511e-06
 1.132056e-06
 2.076426e-05
 -1.017489e-06
 -5.295085e-07
 5.144228e-07
 -1.555418e-06
 -5.090417e-07
 -3.428530e-07
 -1.067696e-08
 1.724082e-07
 -1.786781e-05
 2.627321e-07
 1.479809e-06
 1.272794e-06
 9.214723e-07
 -1.896124e-06
 -1.827654e-06
 -4.233895e-07
 -9.524737e-07
 1.028957e-06
 1.225251e-06
 -1.730552e-05
 5.023299e-08
 -3.610024e-09
 0.000000e+00
 0.000000e+00
 -3.356948e-07
 -1.776299e-05
 -1.036254e-07
 -1.342317e-07
 7.591411e-07
 -5.299100e-07
 -2.326178e-06
 -4.369998e-07
 -4.291569e-08
 -3.238332e-08
 2.462655e-06
 2.755125e-07
 1.439135e-05
 -1.851491e-06
 -8.183892e-07
 -1.092407e-06
 1.755758e-05
 1.032082e-06
 -8.576002e-07
 7.677583e-09
 1.368546e-06
 -3.388513e-05
 1.702021e-05
 -1.238980e-06
 -1.993259e-07
 1.861850e-05
 8.018987e-07
 2.443461e-07
 -5.408688e-07
 -2.709956e-06
 -6.106449e-08
 -3.043551e-08
 1.675740e-07
 1.529303e-08
 -1.347039e-06
 -1.291983e-07
 1.510275e-06
 8.782508e-07
 8.220825e-07
 3.292149e-07
 -5.219625e-07
 -9.573185e-07
 -7.735221e-07
 7.505404e-07
 9.038547e-09
 -1.295193e-06
 8.252554e-08
 1.382177e-06
 2.572209e-07
 0.000000e+00
 0.000000e+00
 -2.041175e-06
 -9.987845e-07
 2.069589e-06
 -4.061492e-08
 1.163069e-06
 -1.696098e-05
 -1.024292e-06
 1.711287e-05
 1.789555e-06
 -5.710360e-07
 -1.974706e-06
 -1.766587e-05
 -1.811832e-05
 -4.923054e-07
 -4.323666e-07
 -4.244728e-07
 -3.889474e-07
 -1.414518e-06
 -5.261656e-07
 -6.550087e-07
 -1.620556e-06
 9.288006e-07
 -1.467940e-05
 -4.319501e-07
 7.436437e-07
 -8.140817e-08
 -1.083212e-06
 9.958894e-07
 -1.688900e-05
 -1.773710e-06
 1.555303e-05
 -1.948186e-05
 -1.392559e-06
 -1.547805e-05
 1.041648e-06
 -4.848470e-07
 3.635975e-07
 7.434817e-07
 7.766355e-07
 2.693069e-07
 -3.659374e-07
 -7.417125e-07